Executable      : siesta
Version         : 5.4.2
Architecture    : x86_64
Compiler version: GNU-14.3.0
Compiler flags  : -march=nocona -mtune=haswell -ftree-vectorize -fPIC -fstack-protector-strong -fno-plt -O2 -ffunction-sections -pipe -isystem <prefix>/include -I<prefix>/_build_env/include -fdebug-prefix-map=<prefix>/work=/usr/local/src/conda/siesta-5.4.2 -fdebug-prefix-map=<prefix>=/usr/local/src/conda-prefix -I<prefix>/lib -fallow-argument-mismatch -O3
Parallelisations: none
NetCDF support
NetCDF-4 support
Lua support
DFT-D3 support

Runtime information:
* Directory : /home/UAB/1597232/Documents/Geometry_Optimization-main/Run2
* Running in serial mode.
>> Start of run:  24-MAR-2026  12:05:59

                           *********************** 
                           *  WELCOME TO SIESTA  * 
                           *********************** 

 NOTE: Siesta V5 introduces some new defaults for basis-set generation
 NOTE: which might lead to slightly different numerical results.
 NOTE: Please see the manual for full details and compatibility measures.


reinit: Reading from file optimization.fdf

reinit: -----------------------------------------------------------------------
reinit: System Name: 
reinit: -----------------------------------------------------------------------
reinit: System Label: optimization
reinit: -----------------------------------------------------------------------

initatom: Reading input for the pseudopotentials and atomic orbitals ----------
Species number:   1 Atomic number:    6 Label: C
Species number:   2 Atomic number:   16 Label: S
Species number:   3 Atomic number:    7 Label: N
Species number:   4 Atomic number:    1 Label: H

Ground state valence configuration (from tables):   2s02  2p02  3d00  4f00
Ground state valence configuration (from tables):   3s02  3p04  3d00  4f00
Ground state valence configuration (from tables):   2s02  2p03  3d00  4f00
Ground state valence configuration (from tables):   1s01  2p00  3d00  4f00

---- Processing specs for species: C
Reading pseudopotential information in PSML from:
  C.psml
PSML file version: 1.1
Using libxc ids:  101 130
GGA--PBE XC_GGA_X_PBE--XC_GGA_C_PBE pb
PSML uuid: 297821e0-be41-11e7-6802-e1ff7dfff095

---- Processing specs for species: S
Reading pseudopotential information in PSML from:
  S.psml
PSML file version: 1.1
Using libxc ids:  101 130
GGA--PBE XC_GGA_X_PBE--XC_GGA_C_PBE pb
PSML uuid: 1fa1ca70-c73e-11ed-7b73-f832edff02a3

---- Processing specs for species: N
Reading pseudopotential information in PSML from:
  N.psml
PSML file version: 1.1
Using libxc ids:  101 130
GGA--PBE XC_GGA_X_PBE--XC_GGA_C_PBE pb
PSML uuid: 31bde650-be41-11e7-78a7-66593edf4b14

---- Processing specs for species: H
Reading pseudopotential information in PSML from:
  H.psml
PSML file version: 1.1
Using libxc ids:  101 130
GGA--PBE XC_GGA_X_PBE--XC_GGA_C_PBE pb
PSML uuid: f95fa9b0-be40-11e7-634a-9594ffff953f

---- Pseudopotential check for C 

Pseudized shells:
2s( 2.00) rc: 1.20
2p( 2.00) rc: 1.26
Valence configuration for ps generation: 2s:2p: Total charge:   4.000000

---- Pseudopotential check for S 

Pseudized shells:
3s( 2.00) rc: 1.46
3p( 4.00) rc: 1.46
3d( 0.00) rc: 1.46
Valence configuration for ps generation: 3s:3p: Total charge:   6.000000

---- Pseudopotential check for N 

Pseudized shells:
2s( 2.00) rc: 1.21
2p( 3.00) rc: 1.36
Valence configuration for ps generation: 2s:2p: Total charge:   5.000000

---- Pseudopotential check for H 

Pseudized shells:
1s( 1.00) rc: 1.01
2p( 0.00) rc: 0.71
Valence configuration for ps generation: 1s: Total charge:   1.000000
For C, standard SIESTA heuristics set lmxkb to 3
 (one more than the basis l, including polarization orbitals).
Use PS.lmax or PS.KBprojectors blocks to override.
For S, standard SIESTA heuristics set lmxkb to 3
 (one more than the basis l, including polarization orbitals).
Use PS.lmax or PS.KBprojectors blocks to override.
For N, standard SIESTA heuristics set lmxkb to 3
 (one more than the basis l, including polarization orbitals).
Use PS.lmax or PS.KBprojectors blocks to override.
For H, standard SIESTA heuristics set lmxkb to 2
 (one more than the basis l, including polarization orbitals).
Use PS.lmax or PS.KBprojectors blocks to override.
C pseudopotential only contains V_ls up to l=1 -- lmxkb reset.
S pseudopotential only contains V_ls up to l=2 -- lmxkb reset.
N pseudopotential only contains V_ls up to l=1 -- lmxkb reset.
H pseudopotential only contains V_ls up to l=1 -- lmxkb reset.

<basis_specs>
===============================================================================
C                    Z=   6    Mass=  12.011        Charge= 0.17977+309
Lmxo=2 Lmxkb= 1    BasisType=split      Semic=F
L=0  Nsemic=0  Cnfigmx=2
          i=1  nzeta=2  polorb=0  (2s)
            splnorm:   0.15000    
               vcte:    40.000    
               rinn:  -0.90000    
               qcoe:    0.0000    
               qyuk:    0.0000    
               qwid:   0.10000E-01
                rcs:    0.0000      0.0000    
            lambdas:    1.0000      1.0000    
L=1  Nsemic=0  Cnfigmx=2
          i=1  nzeta=2  polorb=1  (2p)  (to be polarized perturbatively)
            splnorm:   0.15000    
               vcte:    40.000    
               rinn:  -0.90000    
               qcoe:    0.0000    
               qyuk:    0.0000    
               qwid:   0.10000E-01
                rcs:    0.0000      0.0000    
            lambdas:    1.0000      1.0000    
L=2  Nsemic=0  Cnfigmx=3
          i=1  nzeta=0  polorb=0  (3d)  (perturbative polarization orbital) (from 2p)
-------------------------------------------------------------------------------
L=0  Nkbl=1  erefs: 0.17977+309
L=1  Nkbl=1  erefs: 0.17977+309
===============================================================================
</basis_specs>

Using PAO.SplitTailNorm
atom: Called for C                     (Z =   6)
NOTE: C pseudopotential has channels up to l= 1
NOTE: PAOs with higher l will be generated with V_local
Maximum radius (at nrval) set to   50.00000 8518

read_vps: Pseudopotential generation method:
read_vps: ONCVPSP-3.Hamann's oncvpsp                        
Valence charge in pseudo generation:    4.00000

read_vps: Pseudopotential includes a core correction:
read_vps: Pseudo-core for xc-correction

xc_check: Exchange-correlation functional:
xc_check: GGA Perdew, Burke & Ernzerhof 1996
Got Vlocal (oncv-fit) from psml data
Choosing vlocal chloc cutoff:  4.122282
qtot up to nchloc:    4.00001153
atom: Maximum radius for chlocal:    4.12228
atom: Maximum radius for r*vlocal+2*Zval:    4.12228
Reading KB projs from C psml data
Using scalar-relativistic projectors in PSML file

PSML: Kleinman-Bylander projectors: 
   l= 0   rc=  1.219773   Ekb= 12.963096
   l= 0   rc=  1.219773   Ekb=  0.771007
   l= 1   rc=  1.278952   Ekb= -8.399923
   l= 1   rc=  1.278952   Ekb= -1.755033

PSML: Total number of  Kleinman-Bylander projectors:   8
atom: -------------------------------------------------------------------------

atom: SANKEY-TYPE ORBITALS:
atom: Selected multiple-zeta basis: split     

SPLIT: Orbitals with angular momentum L= 0

SPLIT: Basis orbitals for state 2s

SPLIT: PAO cut-off radius determined from an
SPLIT: energy shift=  0.000735 Ry
Split based on tail norm

   izeta = 1
                 lambda =    1.000000
                     rc =    5.865727
                 energy =   -1.009782
                kinetic =    0.907850
    potential(screened) =   -1.917632
       potential(ionic) =   -5.443189

   izeta = 2
                 rmatch =    3.302919
              splitnorm =    0.150000
                 energy =   -0.812047
                kinetic =    1.580868
    potential(screened) =   -2.392915
       potential(ionic) =   -6.200698

SPLIT: Orbitals with angular momentum L= 1

SPLIT: Basis orbitals for state 2p

SPLIT: PAO cut-off radius determined from an
SPLIT: energy shift=  0.000735 Ry
Split based on tail norm

   izeta = 1
                 lambda =    1.000000
                     rc =    7.564822
                 energy =   -0.387582
                kinetic =    2.372253
    potential(screened) =   -2.759835
       potential(ionic) =   -6.120604

   izeta = 2
                 rmatch =    4.252389
              splitnorm =    0.150000
                 energy =   -0.314961
                kinetic =    3.225377
    potential(screened) =   -3.540338
       potential(ionic) =   -7.207912
*Note: V_local used for l= 2

** Using vlocal for PAOs with L= 2

POLgen: Perturbative polarization orbital with L=  2

POLgen: Polarization orbital for state 2p
*Note: V_local used for lpol= 2

** Using vlocal for PAOs with L= 2
Split based on tail norm

   izeta = 1
                     rc =    7.564822
                 energy =    0.923681
                kinetic =    1.875515
    potential(screened) =   -0.951834
       potential(ionic) =   -3.587740
atom: Total number of Sankey-type orbitals: 13

atm_pop: Valence configuration (for local Pseudopot. screening):
 2s( 2.00)                                                            
 2p( 2.00)                                                            
 3d( 0.00)                                                            
Vna: chval, zval:    4.00000   4.00000

Vna:  Cut-off radius for the neutral-atom potential:   7.564822
comcore: Pseudo-core radius Rcore=  1.671741

atom: _________________________________________________________________________

<basis_specs>
===============================================================================
S                    Z=  16    Mass=  32.060        Charge= 0.17977+309
Lmxo=2 Lmxkb= 2    BasisType=split      Semic=F
L=0  Nsemic=0  Cnfigmx=3
          i=1  nzeta=2  polorb=0  (3s)
            splnorm:   0.15000    
               vcte:    40.000    
               rinn:  -0.90000    
               qcoe:    0.0000    
               qyuk:    0.0000    
               qwid:   0.10000E-01
                rcs:    0.0000      0.0000    
            lambdas:    1.0000      1.0000    
L=1  Nsemic=0  Cnfigmx=3
          i=1  nzeta=2  polorb=1  (3p)  (to be polarized perturbatively)
            splnorm:   0.15000    
               vcte:    40.000    
               rinn:  -0.90000    
               qcoe:    0.0000    
               qyuk:    0.0000    
               qwid:   0.10000E-01
                rcs:    0.0000      0.0000    
            lambdas:    1.0000      1.0000    
L=2  Nsemic=0  Cnfigmx=3
          i=1  nzeta=0  polorb=0  (3d)  (perturbative polarization orbital) (from 3p)
-------------------------------------------------------------------------------
L=0  Nkbl=1  erefs: 0.17977+309
L=1  Nkbl=1  erefs: 0.17977+309
L=2  Nkbl=1  erefs: 0.17977+309
===============================================================================
</basis_specs>

Using PAO.SplitTailNorm
atom: Called for S                     (Z =  16)
Maximum radius (at nrval) set to   50.00000 8518

read_vps: Pseudopotential generation method:
read_vps: ONCVPSP-4.Hamann's oncvpsp                        
Valence charge in pseudo generation:    6.00000

read_vps: Pseudopotential includes a core correction:
read_vps: Pseudo-core for xc-correction

xc_check: Exchange-correlation functional:
xc_check: GGA Perdew, Burke & Ernzerhof 1996
Got Vlocal (oncv-fit) from psml data
Choosing vlocal chloc cutoff:  4.598165
qtot up to nchloc:    6.00012416
atom: Maximum radius for chlocal:    4.59817
atom: Maximum radius for r*vlocal+2*Zval:    4.59817
Reading KB projs from S psml data
Using scalar-relativistic projectors in PSML file

PSML: Kleinman-Bylander projectors: 
   l= 0   rc=  1.466729   Ekb= 13.548468
   l= 0   rc=  1.466729   Ekb=  1.084539
   l= 1   rc=  0.000010   Ekb=  0.000000
   l= 1   rc=  0.000010   Ekb=  0.000000
   l= 2   rc=  0.000010   Ekb=  0.000000
   l= 2   rc=  1.466729   Ekb=  6.044853

PSML: Total number of  Kleinman-Bylander projectors:  18
atom: -------------------------------------------------------------------------

atom: SANKEY-TYPE ORBITALS:
atom: Selected multiple-zeta basis: split     

SPLIT: Orbitals with angular momentum L= 0

SPLIT: Basis orbitals for state 3s

SPLIT: PAO cut-off radius determined from an
SPLIT: energy shift=  0.000735 Ry
Split based on tail norm

   izeta = 1
                 lambda =    1.000000
                     rc =    5.680680
                 energy =   -1.267431
                kinetic =    0.921110
    potential(screened) =   -2.188541
       potential(ionic) =   -7.108752

   izeta = 2
                 rmatch =    3.289694
              splitnorm =    0.150000
                 energy =   -0.945256
                kinetic =    1.769510
    potential(screened) =   -2.714766
       potential(ionic) =   -7.937300

SPLIT: Orbitals with angular momentum L= 1

SPLIT: Basis orbitals for state 3p

SPLIT: PAO cut-off radius determined from an
SPLIT: energy shift=  0.000735 Ry
Split based on tail norm

   izeta = 1
                 lambda =    1.000000
                     rc =    7.370415
                 energy =   -0.514224
                kinetic =    1.400071
    potential(screened) =   -1.914296
       potential(ionic) =   -6.457414

   izeta = 2
                 rmatch =    4.299534
              splitnorm =    0.150000
                 energy =   -0.419401
                kinetic =    1.950583
    potential(screened) =   -2.369984
       potential(ionic) =   -7.281167

POLgen: Perturbative polarization orbital with L=  2

POLgen: Polarization orbital for state 3p
Split based on tail norm

   izeta = 1
                     rc =    7.370415
                 energy =    0.442302
                kinetic =    2.545882
    potential(screened) =   -2.103581
       potential(ionic) =   -6.363867
atom: Total number of Sankey-type orbitals: 13

atm_pop: Valence configuration (for local Pseudopot. screening):
 3s( 2.00)                                                            
 3p( 4.00)                                                            
 3d( 0.00)                                                            
Vna: chval, zval:    6.00000   6.00000

Vna:  Cut-off radius for the neutral-atom potential:   7.370415
comcore: Pseudo-core radius Rcore=  2.210716

atom: _________________________________________________________________________

<basis_specs>
===============================================================================
N                    Z=   7    Mass=  14.007        Charge= 0.17977+309
Lmxo=2 Lmxkb= 1    BasisType=split      Semic=F
L=0  Nsemic=0  Cnfigmx=2
          i=1  nzeta=2  polorb=0  (2s)
            splnorm:   0.15000    
               vcte:    40.000    
               rinn:  -0.90000    
               qcoe:    0.0000    
               qyuk:    0.0000    
               qwid:   0.10000E-01
                rcs:    0.0000      0.0000    
            lambdas:    1.0000      1.0000    
L=1  Nsemic=0  Cnfigmx=2
          i=1  nzeta=2  polorb=1  (2p)  (to be polarized perturbatively)
            splnorm:   0.15000    
               vcte:    40.000    
               rinn:  -0.90000    
               qcoe:    0.0000    
               qyuk:    0.0000    
               qwid:   0.10000E-01
                rcs:    0.0000      0.0000    
            lambdas:    1.0000      1.0000    
L=2  Nsemic=0  Cnfigmx=3
          i=1  nzeta=0  polorb=0  (3d)  (perturbative polarization orbital) (from 2p)
-------------------------------------------------------------------------------
L=0  Nkbl=1  erefs: 0.17977+309
L=1  Nkbl=1  erefs: 0.17977+309
===============================================================================
</basis_specs>

Using PAO.SplitTailNorm
atom: Called for N                     (Z =   7)
NOTE: N pseudopotential has channels up to l= 1
NOTE: PAOs with higher l will be generated with V_local
Maximum radius (at nrval) set to   50.00000 8518

read_vps: Pseudopotential generation method:
read_vps: ONCVPSP-3.Hamann's oncvpsp                        
Valence charge in pseudo generation:    5.00000

read_vps: Pseudopotential includes a core correction:
read_vps: Pseudo-core for xc-correction

xc_check: Exchange-correlation functional:
xc_check: GGA Perdew, Burke & Ernzerhof 1996
Got Vlocal (oncv-fit) from psml data
Choosing vlocal chloc cutoff:  6.038618
qtot up to nchloc:    4.99995109
atom: Maximum radius for chlocal:    6.03862
atom: Maximum radius for r*vlocal+2*Zval:    6.03862
Reading KB projs from N psml data
Using scalar-relativistic projectors in PSML file

PSML: Kleinman-Bylander projectors: 
   l= 0   rc=  1.214864   Ekb= 14.989018
   l= 0   rc=  1.221004   Ekb=  1.272610
   l= 1   rc=  1.375180   Ekb= -8.587810
   l= 1   rc=  1.375180   Ekb= -2.013976

PSML: Total number of  Kleinman-Bylander projectors:   8
atom: -------------------------------------------------------------------------

atom: SANKEY-TYPE ORBITALS:
atom: Selected multiple-zeta basis: split     

SPLIT: Orbitals with angular momentum L= 0

SPLIT: Basis orbitals for state 2s

SPLIT: PAO cut-off radius determined from an
SPLIT: energy shift=  0.000735 Ry
Split based on tail norm

   izeta = 1
                 lambda =    1.000000
                     rc =    5.128853
                 energy =   -1.364951
                kinetic =    1.219328
    potential(screened) =   -2.584278
       potential(ionic) =   -8.061064

   izeta = 2
                 rmatch =    2.799004
              splitnorm =    0.150000
                 energy =   -1.108465
                kinetic =    2.068776
    potential(screened) =   -3.177241
       potential(ionic) =   -9.112461

SPLIT: Orbitals with angular momentum L= 1

SPLIT: Basis orbitals for state 2p

SPLIT: PAO cut-off radius determined from an
SPLIT: energy shift=  0.000735 Ry
Split based on tail norm

   izeta = 1
                 lambda =    1.000000
                     rc =    6.614864
                 energy =   -0.520217
                kinetic =    3.392575
    potential(screened) =   -3.912792
       potential(ionic) =   -9.170860

   izeta = 2
                 rmatch =    3.582433
              splitnorm =    0.150000
                 energy =   -0.423250
                kinetic =    4.550527
    potential(screened) =   -4.973778
       potential(ionic) =  -10.717060
*Note: V_local used for l= 2

** Using vlocal for PAOs with L= 2

POLgen: Perturbative polarization orbital with L=  2

POLgen: Polarization orbital for state 2p
*Note: V_local used for lpol= 2

** Using vlocal for PAOs with L= 2
Split based on tail norm

   izeta = 1
                     rc =    6.614864
                 energy =    1.365983
                kinetic =    2.607373
    potential(screened) =   -1.241390
       potential(ionic) =   -5.257349
atom: Total number of Sankey-type orbitals: 13

atm_pop: Valence configuration (for local Pseudopot. screening):
 2s( 2.00)                                                            
 2p( 3.00)                                                            
 3d( 0.00)                                                            
Vna: chval, zval:    5.00000   5.00000

Vna:  Cut-off radius for the neutral-atom potential:   6.614864
comcore: Pseudo-core radius Rcore=  1.572221

atom: _________________________________________________________________________

<basis_specs>
===============================================================================
H                    Z=   1    Mass=  1.0080        Charge= 0.17977+309
Lmxo=1 Lmxkb= 1    BasisType=split      Semic=F
L=0  Nsemic=0  Cnfigmx=1
          i=1  nzeta=2  polorb=1  (1s)  (to be polarized perturbatively)
            splnorm:   0.15000    
               vcte:    40.000    
               rinn:  -0.90000    
               qcoe:    0.0000    
               qyuk:    0.0000    
               qwid:   0.10000E-01
                rcs:    0.0000      0.0000    
            lambdas:    1.0000      1.0000    
L=1  Nsemic=0  Cnfigmx=2
          i=1  nzeta=0  polorb=0  (2p)  (perturbative polarization orbital) (from 1s)
-------------------------------------------------------------------------------
L=0  Nkbl=1  erefs: 0.17977+309
L=1  Nkbl=1  erefs: 0.17977+309
===============================================================================
</basis_specs>

Using PAO.SplitTailNorm
atom: Called for H                     (Z =   1)
Maximum radius (at nrval) set to   50.00000 8518

read_vps: Pseudopotential generation method:
read_vps: ONCVPSP-3.Hamann's oncvpsp                        
Valence charge in pseudo generation:    1.00000

xc_check: Exchange-correlation functional:
xc_check: GGA Perdew, Burke & Ernzerhof 1996
Got Vlocal (oncv-fit) from psml data
Choosing vlocal chloc cutoff:  1.926399
qtot up to nchloc:    0.99999831
atom: Maximum radius for chlocal:    1.92640
atom: Maximum radius for r*vlocal+2*Zval:    1.92640
Reading KB projs from H psml data
Using scalar-relativistic projectors in PSML file

PSML: Kleinman-Bylander projectors: 
   l= 0   rc=  1.022342   Ekb= -3.402247
   l= 0   rc=  1.022342   Ekb= -1.068968
   l= 1   rc=  0.714575   Ekb= -1.006642

PSML: Total number of  Kleinman-Bylander projectors:   5
atom: -------------------------------------------------------------------------

atom: SANKEY-TYPE ORBITALS:
atom: Selected multiple-zeta basis: split     

SPLIT: Orbitals with angular momentum L= 0

SPLIT: Basis orbitals for state 1s

SPLIT: PAO cut-off radius determined from an
SPLIT: energy shift=  0.000735 Ry
Split based on tail norm

   izeta = 1
                 lambda =    1.000000
                     rc =    7.238756
                 energy =   -0.476315
                kinetic =    0.887622
    potential(screened) =   -1.363936
       potential(ionic) =   -1.882865

   izeta = 2
                 rmatch =    4.044510
              splitnorm =    0.150000
                 energy =   -0.376652
                kinetic =    1.480380
    potential(screened) =   -1.857033
       potential(ionic) =   -2.405174

POLgen: Perturbative polarization orbital with L=  1

POLgen: Polarization orbital for state 1s
Split based on tail norm

   izeta = 1
                     rc =    7.238756
                 energy =    0.508786
                kinetic =    1.081322
    potential(screened) =   -0.572537
       potential(ionic) =   -1.035092
atom: Total number of Sankey-type orbitals:  5

atm_pop: Valence configuration (for local Pseudopot. screening):
 1s( 1.00)                                                            
 2p( 0.00)                                                            
Vna: chval, zval:    1.00000   1.00000

Vna:  Cut-off radius for the neutral-atom potential:   7.238756

atom: _________________________________________________________________________

prinput: Basis input 

PAO.BasisType split     

%block ChemicalSpeciesLabel
    1    6 C                       # Species index, atomic number, species label
    2   16 S                       # Species index, atomic number, species label
    3    7 N                       # Species index, atomic number, species label
    4    1 H                       # Species index, atomic number, species label
%endblock ChemicalSpeciesLabel

%block PAO.Basis                 # Define Basis set
# WARNING: This information might be incomplete!
C                     2                    # Species label, number of l-shells
 n=2   0   2                         # n, l, Nzeta 
   5.866      3.303   
   1.000      1.000   
 n=2   1   2 P   1                   # n, l, Nzeta, Polarization, NzetaPol
   7.565      4.252   
   1.000      1.000   
S                     2                    # Species label, number of l-shells
 n=3   0   2                         # n, l, Nzeta 
   5.681      3.290   
   1.000      1.000   
 n=3   1   2 P   1                   # n, l, Nzeta, Polarization, NzetaPol
   7.370      4.300   
   1.000      1.000   
N                     2                    # Species label, number of l-shells
 n=2   0   2                         # n, l, Nzeta 
   5.129      2.799   
   1.000      1.000   
 n=2   1   2 P   1                   # n, l, Nzeta, Polarization, NzetaPol
   6.615      3.582   
   1.000      1.000   
H                     1                    # Species label, number of l-shells
 n=1   0   2 P   1                   # n, l, Nzeta, Polarization, NzetaPol
   7.239      4.045   
   1.000      1.000   
%endblock PAO.Basis

prinput: ----------------------------------------------------------------------

Dumping basis to NetCDF file C.ion.nc
Dumping basis to NetCDF file S.ion.nc
Dumping basis to NetCDF file N.ion.nc
Dumping basis to NetCDF file H.ion.nc
coor:   Atomic-coordinates input format  =     Cartesian coordinates
coor:                                          (in Angstroms)

siesta: Atomic coordinates (Bohr) and species
siesta:      0.74515  -2.61570  -0.71648  1        1
siesta:     -1.57415  -2.24715   0.62812  1        2
siesta:     -1.98359   0.27038   1.14483  1        3
siesta:      0.35394   2.08743   0.03890  2        4
siesta:      1.97251  -0.36209  -1.14913  1        5
siesta:     -4.07231   1.26168   2.43085  1        6
siesta:     -3.18671  -4.23132   1.30782  3        7
siesta:      1.61464  -4.99614  -1.47595  3        8
siesta:      4.28193  -0.07903  -2.40839  1        9
siesta:     -2.17512  -5.81964   1.46588  4       10
siesta:     -4.00591  -3.85578   2.96883  4       11
siesta:      3.49516  -4.93668  -1.65256  4       12
siesta:      1.15923  -6.29258  -0.17868  4       13
siesta:      5.12721   2.51572  -3.17479  1       14
siesta:      5.38321  -1.57386  -2.76014  4       15
siesta:      4.10331   4.03902  -2.72505  4       16
siesta:      6.77680   2.71791  -4.07426  4       17
siesta:     -6.27685  -0.42903   2.99307  1       18
siesta:     -4.08897   3.06024   3.01048  4       19
siesta:     -6.23257  -2.26155   2.53378  4       20
siesta:     -7.76879   0.27904   3.91166  4       21

siesta: System type = molecule  

initatomlists: Number of atoms, orbitals, and projectors:     21   193   148

coxmol: Writing XMOL coordinates into file optimization.xyz                                                                                                                                                                                                                    

siesta: ******************** Simulation parameters ****************************
siesta:
siesta: The following are some of the parameters of the simulation.
siesta: A complete list of the parameters used, including default values,
siesta: can be found in file out.fdf
siesta:
redata: Spin configuration                          = none
redata: Number of spin components                   = 1
redata: Time-Reversal Symmetry                      = T
redata: Spin spiral                                 = F
redata: Long output                                 =   F
redata: Number of Atomic Species                    =        4
redata: Charge density info will appear in .RHO file
redata: Write Mulliken charges (when)               = none
redata: Write Mulliken Pop.                         = NO
redata: Write Hirshfeld charges (when)              = none
redata: Write Voronoi charges (when)                = none
redata: Write spin charge (when)                    = none
redata: Matel table size (NRTAB)                    =     1024
redata: Mesh Cutoff                                 =   300.0000 Ry
redata: Net charge of the system                    =     0.0000 |e|
redata: Min. number of SCF Iter                     =        0
redata: Max. number of SCF Iter                     =     1000
redata: SCF convergence failure will abort job
redata: SCF mix quantity                            = Hamiltonian
redata: Mix DM or H after convergence               =   F
redata: Recompute H after scf cycle                 =   F
redata: Mix DM in first SCF step                    =   T
redata: Write Pulay info on disk                    =   F
redata: New DM Occupancy tolerance                  = 0.000000000001
redata: No kicks to SCF
redata: DM Mixing Weight for Kicks                  =     0.5000
redata: Require Harris convergence for SCF          =   F
redata: Harris energy tolerance for SCF             =     0.000100 eV
redata: Require DM convergence for SCF              =   T
redata: DM tolerance for SCF                        =     0.000100
redata: Require EDM convergence for SCF             =   F
redata: EDM tolerance for SCF                       =     0.001000 eV
redata: Require H convergence for SCF               =   T
redata: Hamiltonian tolerance for SCF               =     0.001000 eV
redata: Require (free) Energy convergence for SCF   =   F
redata: (free) Energy tolerance for SCF             =     0.000100 eV
redata: Using DFT-D3 dispersion                     =   F
redata: Using Saved Data (generic)                  =   F
redata: Use continuation files for DM               =   T
redata: Neglect nonoverlap interactions             =   F
redata: Method of Calculation                       = Diagonalization
redata: Electronic Temperature                      =   300.0000 K
redata: Fix the spin of the system                  =   F
redata: Max. number of TDED Iter                    =        1
redata: Number of TDED substeps                     =        3
redata: Dynamics option                             = CG coord. optimization
redata: Variable cell                               =   F
redata: Use continuation files for CG               =   F
redata: Max atomic displ per move                   =     0.1058 Ang
redata: Maximum number of optimization moves        =       20
redata: Force tolerance                             =     0.0050 eV/Ang
mix.SCF: Pulay mixing                            = Pulay
mix.SCF:    Variant                              = stable
mix.SCF:    History steps                        = 2
mix.SCF:    Linear mixing weight                 =     0.250000
mix.SCF:    Mixing weight                        =     0.250000
mix.SCF:    SVD condition                        = 0.1000E-07
redata: Save all siesta data in one NC              =   F
redata: ***********************************************************************

%block SCF.Mixers
  Pulay
%endblock SCF.Mixers

%block SCF.Mixer.Pulay
  # Mixing method
  method pulay
  variant stable

  # Mixing options
  weight 0.2500
  weight.linear 0.2500
  history 2
%endblock SCF.Mixer.Pulay

DM_history_depth set to one: no extrapolation allowed by default for geometry relaxation
Size of DM history Fstack: 1
Total number of electrons:    58.000000
Total ionic charge:    58.000000

siesta: k-grid: Number of k-points = 1
siesta: k-point is Gamma-only

diag: Algorithm                                     = D&C
diag: Used triangular part                          = Lower
diag: Absolute tolerance                            =  0.100E-15
diag: Orthogonalization factor                      =  0.100E-05
diag: Memory factor                                 =  1.0000


ts: **************************************************************
ts: Save H and S matrices                           =    F
ts: Save TSHS files in MD/FC simulation             =    F
ts: Save DM and EDM matrices                        =    F
ts: Only save the overlap matrix S                  =    F
ts: **************************************************************

************************ Begin: TS CHECKS AND WARNINGS ************************
************************ End: TS CHECKS AND WARNINGS **************************


                     ====================================
                        Begin CG opt. move =      0
                     ====================================

outcell: Unit cell vectors (Ang):
       17.697195    0.000000    0.000000
        0.000000   15.467246    0.000000
        0.000000    0.000000   14.225964

outcell: Cell vector modules (Ang)   :   17.697195   15.467246   14.225964
outcell: Cell angles (23,13,12) (deg):     90.0000     90.0000     90.0000
outcell: Cell volume (Ang**3)        :   3894.0286
<dSpData1D:S at geom step 0
  <sparsity:sparsity for geom step 0
    nrows_g=193 nrows=193 sparsity=.9632 nnzs=35877, refcount: 7>
  <dData1D:(new from dSpData1D) n=35877, refcount: 1>
refcount: 1>
new_DM -- step:     1
Initializing Density Matrix...

Attempting to read DM from file... Failed...
DM filled with atomic data:
<dSpData2D:DM initialized from atoms
  <sparsity:sparsity for geom step 0
    nrows_g=193 nrows=193 sparsity=.9632 nnzs=35877, refcount: 8>
  <dData2D:DM n=35877 m=1, refcount: 1>
refcount: 1>
No. of atoms with KB's overlaping orbs in proc 0. Max # of overlaps:      21     162

InitMesh: MESH = 192 x 162 x 150 = 4665600
InitMesh: Mesh cutoff (required, used) =   300.000   303.184 Ry
New grid distribution [1]: sub = 2

stepf: Fermi-Dirac step function

siesta: Program's energy decomposition (eV):
siesta: Ebs     =      -620.605014
siesta: Eions   =      4009.306222
siesta: Ena     =      1131.889528
siesta: Ekin    =      1649.015772
siesta: Enl     =      -115.799354
siesta: Eso     =         0.000000
siesta: Edftu   =         0.000000
siesta: DEna    =      -183.596040
siesta: DUscf   =        26.223677
siesta: DUext   =         0.000000
siesta: Ex      =      -773.079797
siesta: Ec      =       -68.263218
siesta: Exc     =      -841.343015
siesta: EbV     =         0.000000
siesta: eta*DQ  =         0.000000
siesta: Emadel  =         0.000000
siesta: Emeta   =         0.000000
siesta: Emolmec =         0.000000
siesta: Ekinion =         0.000000
siesta: Eharris =     -2322.487111
siesta: Etot    =     -2342.915655
siesta: FreeEng =     -2342.915655

        iscf     Eharris(eV)        E_KS(eV)     FreeEng(eV)     dDmax    Ef(eV) dHmax(eV)
   scf:    1    -2322.487111    -2342.915655    -2342.915655  1.884503 -7.788279 10.527370
timer: Routine,Calls,Time,% = IterSCF        1       2.262  21.95
   scf:    2    -2352.681776    -2348.767288    -2348.767288  0.216891 -5.974759  6.618474
   scf:    3    -2351.436782    -2350.682872    -2350.682872  0.206481 -4.433745  2.259652
   scf:    4    -2350.865531    -2350.865174    -2350.865174  0.047210 -4.388231  0.676131
   scf:    5    -2350.901879    -2350.889677    -2350.889677  0.014006 -4.297207  0.523666
   scf:    6    -2350.907416    -2350.899694    -2350.899694  0.012177 -4.217172  0.303953
   scf:    7    -2350.905730    -2350.904121    -2350.904121  0.012562 -4.107776  0.150733
   scf:    8    -2350.904441    -2350.904715    -2350.904715  0.002394 -4.101879  0.052503
   scf:    9    -2350.904850    -2350.904822    -2350.904822  0.001070 -4.096308  0.029925
   scf:   10    -2350.904864    -2350.904845    -2350.904845  0.000490 -4.091652  0.018094
   scf:   11    -2350.904870    -2350.904862    -2350.904862  0.000725 -4.084658  0.009014
   scf:   12    -2350.904864    -2350.904864    -2350.904864  0.000186 -4.084014  0.003381
   scf:   13    -2350.904865    -2350.904865    -2350.904865  0.000069 -4.083721  0.002090
   scf:   14    -2350.904865    -2350.904865    -2350.904865  0.000036 -4.083434  0.001339
   scf:   15    -2350.904865    -2350.904865    -2350.904865  0.000062 -4.082874  0.000701

SCF Convergence by DM+H criterion
max |DM_out - DM_in|         :     0.0000616107
max |H_out - H_in|      (eV) :     0.0007013173
SCF cycle converged after 15 iterations

Using DM_out to compute the final energy and forces
No. of atoms with KB's overlaping orbs in proc 0. Max # of overlaps:      21     162

siesta: E_KS(eV) =            -2350.9049

siesta: E_KS - E_eggbox =     -2350.9049

siesta: Atomic forces (eV/Ang):
----------------------------------------
   Tot    0.004207    0.000975    0.000621
----------------------------------------
   Max    9.356024
   Res    2.862968    sqrt( Sum f_i^2 / 3N )
----------------------------------------
   Max    9.356024    constrained

Stress tensor Voigt[x,y,z,yz,xz,xy] (kbar):       -7.45       -6.81       -3.20       -3.08        4.16        5.13
(Free)E + p*V (eV/cell)    -2336.7631
Target enthalpy (eV/cell)    -2350.9049

                     ====================================
                        Begin CG opt. move =      1
                     ====================================

outcell: Unit cell vectors (Ang):
       17.697195    0.000000    0.000000
        0.000000   15.467246    0.000000
        0.000000    0.000000   14.225964

outcell: Cell vector modules (Ang)   :   17.697195   15.467246   14.225964
outcell: Cell angles (23,13,12) (deg):     90.0000     90.0000     90.0000
outcell: Cell volume (Ang**3)        :   3894.0286
<dSpData1D:S at geom step 1
  <sparsity:sparsity for geom step 1
    nrows_g=193 nrows=193 sparsity=.9635 nnzs=35891, refcount: 7>
  <dData1D:(new from dSpData1D) n=35891, refcount: 1>
refcount: 1>
new_DM -- step:     2
Re-using DM from previous geometries...
Number of DMs in history: 1
 DM extrapolation coefficients: 
1   1.00000
New DM after history re-use:
<dSpData2D:SpM extrapolated using coords
  <sparsity:sparsity for geom step 1
    nrows_g=193 nrows=193 sparsity=.9635 nnzs=35891, refcount: 9>
  <dData2D:(temp array for extrapolation) n=35891 m=1, refcount: 1>
refcount: 1>
No. of atoms with KB's overlaping orbs in proc 0. Max # of overlaps:      21     163

InitMesh: MESH = 192 x 162 x 150 = 4665600
InitMesh: Mesh cutoff (required, used) =   300.000   303.184 Ry
New grid distribution [1]: sub = 2

        iscf     Eharris(eV)        E_KS(eV)     FreeEng(eV)     dDmax    Ef(eV) dHmax(eV)
   scf:    1    -2352.972377    -2352.620029    -2352.620029  0.120497 -3.898934  0.826911
   scf:    2    -2352.112193    -2352.493245    -2352.493245  0.039994 -3.942843  1.598754
   scf:    3    -2352.711081    -2352.666442    -2352.666442  0.024796 -3.945885  0.074216
   scf:    4    -2352.667522    -2352.667063    -2352.667063  0.001535 -3.953544  0.034956
   scf:    5    -2352.667276    -2352.667183    -2352.667183  0.000746 -3.957072  0.018352
   scf:    6    -2352.667216    -2352.667201    -2352.667201  0.000353 -3.956916  0.009663
   scf:    7    -2352.667212    -2352.667207    -2352.667207  0.000321 -3.956426  0.002257
   scf:    8    -2352.667208    -2352.667208    -2352.667208  0.000115 -3.956008  0.001009
   scf:    9    -2352.667208    -2352.667208    -2352.667208  0.000047 -3.955803  0.000418

SCF Convergence by DM+H criterion
max |DM_out - DM_in|         :     0.0000473382
max |H_out - H_in|      (eV) :     0.0004175948
SCF cycle converged after 9 iterations

Using DM_out to compute the final energy and forces
No. of atoms with KB's overlaping orbs in proc 0. Max # of overlaps:      21     163

siesta: E_KS(eV) =            -2352.6672

siesta: Atomic forces (eV/Ang):
----------------------------------------
   Tot    0.001502   -0.004326    0.000682
----------------------------------------
   Max    4.200201
   Res    1.361791    sqrt( Sum f_i^2 / 3N )
----------------------------------------
   Max    4.200201    constrained

Stress tensor Voigt[x,y,z,yz,xz,xy] (kbar):       -6.25       -5.02       -2.42       -1.70        3.42        3.01
(Free)E + p*V (eV/cell)    -2341.5787
Target enthalpy (eV/cell)    -2352.6672

                     ====================================
                        Begin CG opt. move =      2
                     ====================================

outcell: Unit cell vectors (Ang):
       17.697195    0.000000    0.000000
        0.000000   15.467246    0.000000
        0.000000    0.000000   14.225964

outcell: Cell vector modules (Ang)   :   17.697195   15.467246   14.225964
outcell: Cell angles (23,13,12) (deg):     90.0000     90.0000     90.0000
outcell: Cell volume (Ang**3)        :   3894.0286
<dSpData1D:S at geom step 2
  <sparsity:sparsity for geom step 2
    nrows_g=193 nrows=193 sparsity=.9714 nnzs=36183, refcount: 7>
  <dData1D:(new from dSpData1D) n=36183, refcount: 1>
refcount: 1>
new_DM -- step:     3
Re-using DM from previous geometries...
Number of DMs in history: 1
 DM extrapolation coefficients: 
1   1.00000
New DM after history re-use:
<dSpData2D:SpM extrapolated using coords
  <sparsity:sparsity for geom step 2
    nrows_g=193 nrows=193 sparsity=.9714 nnzs=36183, refcount: 9>
  <dData2D:(temp array for extrapolation) n=36183 m=1, refcount: 1>
refcount: 1>
Note: For starting DM, Qtot, Tr[D*S] =         58.00000000         57.84936739
No. of atoms with KB's overlaping orbs in proc 0. Max # of overlaps:      21     163

InitMesh: MESH = 192 x 162 x 150 = 4665600
InitMesh: Mesh cutoff (required, used) =   300.000   303.184 Ry
New grid distribution [1]: sub = 2

        iscf     Eharris(eV)        E_KS(eV)     FreeEng(eV)     dDmax    Ef(eV) dHmax(eV)
   scf:    1    -2352.585737    -2352.615823    -2352.615823  0.182645 -3.282025  1.233691
   scf:    2    -2351.619033    -2352.380247    -2352.380247  0.084269 -3.876273  2.619473
   scf:    3    -2352.832098    -2352.725512    -2352.725512  0.049352 -3.505360  0.103361
   scf:    4    -2352.727107    -2352.726394    -2352.726394  0.002367 -3.515946  0.060875
   scf:    5    -2352.726852    -2352.726651    -2352.726651  0.001414 -3.521225  0.025189
   scf:    6    -2352.726720    -2352.726687    -2352.726687  0.000538 -3.521362  0.011109
   scf:    7    -2352.726708    -2352.726699    -2352.726699  0.000490 -3.520924  0.002825
   scf:    8    -2352.726700    -2352.726699    -2352.726699  0.000125 -3.520632  0.001206
   scf:    9    -2352.726700    -2352.726700    -2352.726700  0.000087 -3.520455  0.000733

SCF Convergence by DM+H criterion
max |DM_out - DM_in|         :     0.0000872961
max |H_out - H_in|      (eV) :     0.0007331373
SCF cycle converged after 9 iterations

Using DM_out to compute the final energy and forces
No. of atoms with KB's overlaping orbs in proc 0. Max # of overlaps:      21     163

siesta: E_KS(eV) =            -2352.7267

siesta: Atomic forces (eV/Ang):
----------------------------------------
   Tot   -0.005759   -0.000310    0.001273
----------------------------------------
   Max    6.419780
   Res    1.629702    sqrt( Sum f_i^2 / 3N )
----------------------------------------
   Max    6.419780    constrained

Stress tensor Voigt[x,y,z,yz,xz,xy] (kbar):       -6.16       -4.98       -1.69        0.58        3.07       -0.76
(Free)E + p*V (eV/cell)    -2342.3340
Target enthalpy (eV/cell)    -2352.7267

                     ====================================
                        Begin CG opt. move =      3
                     ====================================

outcell: Unit cell vectors (Ang):
       17.697195    0.000000    0.000000
        0.000000   15.467246    0.000000
        0.000000    0.000000   14.225964

outcell: Cell vector modules (Ang)   :   17.697195   15.467246   14.225964
outcell: Cell angles (23,13,12) (deg):     90.0000     90.0000     90.0000
outcell: Cell volume (Ang**3)        :   3894.0286
<dSpData1D:S at geom step 3
  <sparsity:sparsity for geom step 3
    nrows_g=193 nrows=193 sparsity=.9680 nnzs=36057, refcount: 7>
  <dData1D:(new from dSpData1D) n=36057, refcount: 1>
refcount: 1>
new_DM -- step:     4
Re-using DM from previous geometries...
Number of DMs in history: 1
 DM extrapolation coefficients: 
1   1.00000
New DM after history re-use:
<dSpData2D:SpM extrapolated using coords
  <sparsity:sparsity for geom step 3
    nrows_g=193 nrows=193 sparsity=.9680 nnzs=36057, refcount: 9>
  <dData2D:(temp array for extrapolation) n=36057 m=1, refcount: 1>
refcount: 1>
Note: For starting DM, Qtot, Tr[D*S] =         58.00000000         58.08837651
No. of atoms with KB's overlaping orbs in proc 0. Max # of overlaps:      21     163

InitMesh: MESH = 192 x 162 x 150 = 4665600
InitMesh: Mesh cutoff (required, used) =   300.000   303.184 Ry
New grid distribution [1]: sub = 2

        iscf     Eharris(eV)        E_KS(eV)     FreeEng(eV)     dDmax    Ef(eV) dHmax(eV)
   scf:    1    -2352.995568    -2353.105312    -2353.105312  0.087762 -3.942032  0.713889
   scf:    2    -2352.585158    -2352.968226    -2352.968226  0.047133 -3.537187  1.556378
   scf:    3    -2353.186968    -2353.141386    -2353.141386  0.029569 -3.803367  0.067938
   scf:    4    -2353.142114    -2353.141792    -2353.141792  0.001850 -3.791941  0.032704
   scf:    5    -2353.141957    -2353.141887    -2353.141887  0.001068 -3.786447  0.013891
   scf:    6    -2353.141907    -2353.141898    -2353.141898  0.000267 -3.786042  0.007390
   scf:    7    -2353.141906    -2353.141902    -2353.141902  0.000320 -3.785882  0.001344
   scf:    8    -2353.141903    -2353.141902    -2353.141902  0.000059 -3.785985  0.000625

SCF Convergence by DM+H criterion
max |DM_out - DM_in|         :     0.0000591686
max |H_out - H_in|      (eV) :     0.0006253496
SCF cycle converged after 8 iterations

Using DM_out to compute the final energy and forces
No. of atoms with KB's overlaping orbs in proc 0. Max # of overlaps:      21     163

siesta: E_KS(eV) =            -2353.1419

siesta: Atomic forces (eV/Ang):
----------------------------------------
   Tot   -0.003360   -0.004930    0.001212
----------------------------------------
   Max    1.223848
   Res    0.493394    sqrt( Sum f_i^2 / 3N )
----------------------------------------
   Max    1.223848    constrained

Stress tensor Voigt[x,y,z,yz,xz,xy] (kbar):       -5.90       -4.53       -1.97       -0.60        3.11        1.23
(Free)E + p*V (eV/cell)    -2343.0966
Target enthalpy (eV/cell)    -2353.1419

cgvc: Finished line minimization    1.  Mean atomic displacement =    0.0786

                     ====================================
                        Begin CG opt. move =      4
                     ====================================

outcell: Unit cell vectors (Ang):
       17.697195    0.000000    0.000000
        0.000000   15.467246    0.000000
        0.000000    0.000000   14.225964

outcell: Cell vector modules (Ang)   :   17.697195   15.467246   14.225964
outcell: Cell angles (23,13,12) (deg):     90.0000     90.0000     90.0000
outcell: Cell volume (Ang**3)        :   3894.0286
<dSpData1D:S at geom step 4
  <sparsity:sparsity for geom step 4
    nrows_g=193 nrows=193 sparsity=.9635 nnzs=35891, refcount: 7>
  <dData1D:(new from dSpData1D) n=35891, refcount: 1>
refcount: 1>
new_DM -- step:     5
Re-using DM from previous geometries...
Number of DMs in history: 1
 DM extrapolation coefficients: 
1   1.00000
New DM after history re-use:
<dSpData2D:SpM extrapolated using coords
  <sparsity:sparsity for geom step 4
    nrows_g=193 nrows=193 sparsity=.9635 nnzs=35891, refcount: 9>
  <dData2D:(temp array for extrapolation) n=35891 m=1, refcount: 1>
refcount: 1>
Note: For starting DM, Qtot, Tr[D*S] =         58.00000000         57.86688603
No. of atoms with KB's overlaping orbs in proc 0. Max # of overlaps:      21     163

InitMesh: MESH = 192 x 162 x 150 = 4665600
InitMesh: Mesh cutoff (required, used) =   300.000   303.184 Ry
New grid distribution [1]: sub = 2

        iscf     Eharris(eV)        E_KS(eV)     FreeEng(eV)     dDmax    Ef(eV) dHmax(eV)
   scf:    1    -2353.835527    -2352.915740    -2352.915740  0.170395 -3.119856  2.408397
   scf:    2    -2347.865355    -2351.535725    -2351.535725  0.127351 -3.332482  4.605241
   scf:    3    -2353.618614    -2353.186920    -2353.186920  0.081774 -3.119245  0.187516
   scf:    4    -2353.189671    -2353.188471    -2353.188471  0.002520 -3.126462  0.089158
   scf:    5    -2353.189177    -2353.188879    -2353.188879  0.001401 -3.132701  0.033882
   scf:    6    -2353.188968    -2353.188927    -2353.188927  0.000637 -3.133865  0.013238
   scf:    7    -2353.188950    -2353.188940    -2353.188940  0.000450 -3.134236  0.003447
   scf:    8    -2353.188943    -2353.188941    -2353.188941  0.000153 -3.134194  0.001303
   scf:    9    -2353.188942    -2353.188942    -2353.188942  0.000106 -3.134149  0.000583
   scf:   10    -2353.188942    -2353.188942    -2353.188942  0.000034 -3.134130  0.000476

SCF Convergence by DM+H criterion
max |DM_out - DM_in|         :     0.0000337205
max |H_out - H_in|      (eV) :     0.0004758215
SCF cycle converged after 10 iterations

Using DM_out to compute the final energy and forces
No. of atoms with KB's overlaping orbs in proc 0. Max # of overlaps:      21     163

siesta: E_KS(eV) =            -2353.1889

siesta: Atomic forces (eV/Ang):
----------------------------------------
   Tot    0.000992    0.001724    0.004004
----------------------------------------
   Max    2.983434
   Res    0.986873    sqrt( Sum f_i^2 / 3N )
----------------------------------------
   Max    2.983434    constrained

Stress tensor Voigt[x,y,z,yz,xz,xy] (kbar):       -2.29       -2.42       -0.42       -0.73        1.23        0.90
(Free)E + p*V (eV/cell)    -2349.0370
Target enthalpy (eV/cell)    -2353.1889

                     ====================================
                        Begin CG opt. move =      5
                     ====================================

outcell: Unit cell vectors (Ang):
       17.697195    0.000000    0.000000
        0.000000   15.467246    0.000000
        0.000000    0.000000   14.225964

outcell: Cell vector modules (Ang)   :   17.697195   15.467246   14.225964
outcell: Cell angles (23,13,12) (deg):     90.0000     90.0000     90.0000
outcell: Cell volume (Ang**3)        :   3894.0286
<dSpData1D:S at geom step 5
  <sparsity:sparsity for geom step 5
    nrows_g=193 nrows=193 sparsity=.9635 nnzs=35891, refcount: 7>
  <dData1D:(new from dSpData1D) n=35891, refcount: 1>
refcount: 1>
new_DM -- step:     6
Re-using DM from previous geometries...
Number of DMs in history: 1
 DM extrapolation coefficients: 
1   1.00000
New DM after history re-use:
<dSpData2D:SpM extrapolated using coords
  <sparsity:sparsity for geom step 5
    nrows_g=193 nrows=193 sparsity=.9635 nnzs=35891, refcount: 9>
  <dData2D:(temp array for extrapolation) n=35891 m=1, refcount: 1>
refcount: 1>
Note: For starting DM, Qtot, Tr[D*S] =         58.00000000         58.07047891
No. of atoms with KB's overlaping orbs in proc 0. Max # of overlaps:      21     163

InitMesh: MESH = 192 x 162 x 150 = 4665600
InitMesh: Mesh cutoff (required, used) =   300.000   303.184 Ry
New grid distribution [1]: sub = 2

        iscf     Eharris(eV)        E_KS(eV)     FreeEng(eV)     dDmax    Ef(eV) dHmax(eV)
   scf:    1    -2352.520664    -2353.285856    -2353.285856  0.073184 -3.989743  1.042374
   scf:    2    -2352.400253    -2353.046342    -2353.046342  0.059671 -3.993311  1.949238
   scf:    3    -2353.415962    -2353.336270    -2353.336270  0.040386 -3.974950  0.082276
   scf:    4    -2353.336846    -2353.336590    -2353.336590  0.001205 -3.970873  0.039509
   scf:    5    -2353.336744    -2353.336683    -2353.336683  0.000711 -3.967723  0.012459
   scf:    6    -2353.336696    -2353.336690    -2353.336690  0.000237 -3.967246  0.005488
   scf:    7    -2353.336694    -2353.336692    -2353.336692  0.000201 -3.966988  0.001289
   scf:    8    -2353.336693    -2353.336693    -2353.336693  0.000058 -3.966978  0.000519

SCF Convergence by DM+H criterion
max |DM_out - DM_in|         :     0.0000575761
max |H_out - H_in|      (eV) :     0.0005187314
SCF cycle converged after 8 iterations

Using DM_out to compute the final energy and forces
No. of atoms with KB's overlaping orbs in proc 0. Max # of overlaps:      21     163

siesta: E_KS(eV) =            -2353.3367

siesta: Atomic forces (eV/Ang):
----------------------------------------
   Tot   -0.003048    0.000286    0.001774
----------------------------------------
   Max    1.552213
   Res    0.491936    sqrt( Sum f_i^2 / 3N )
----------------------------------------
   Max    1.552213    constrained

Stress tensor Voigt[x,y,z,yz,xz,xy] (kbar):       -3.78       -3.27       -1.07       -0.68        2.00        1.07
(Free)E + p*V (eV/cell)    -2346.7594
Target enthalpy (eV/cell)    -2353.3367

cgvc: Finished line minimization    2.  Mean atomic displacement =    0.0429

                     ====================================
                        Begin CG opt. move =      6
                     ====================================

outcell: Unit cell vectors (Ang):
       17.697195    0.000000    0.000000
        0.000000   15.467246    0.000000
        0.000000    0.000000   14.225964

outcell: Cell vector modules (Ang)   :   17.697195   15.467246   14.225964
outcell: Cell angles (23,13,12) (deg):     90.0000     90.0000     90.0000
outcell: Cell volume (Ang**3)        :   3894.0286
<dSpData1D:S at geom step 6
  <sparsity:sparsity for geom step 6
    nrows_g=193 nrows=193 sparsity=.9631 nnzs=35873, refcount: 7>
  <dData1D:(new from dSpData1D) n=35873, refcount: 1>
refcount: 1>
new_DM -- step:     7
Re-using DM from previous geometries...
Number of DMs in history: 1
 DM extrapolation coefficients: 
1   1.00000
New DM after history re-use:
<dSpData2D:SpM extrapolated using coords
  <sparsity:sparsity for geom step 6
    nrows_g=193 nrows=193 sparsity=.9631 nnzs=35873, refcount: 9>
  <dData2D:(temp array for extrapolation) n=35873 m=1, refcount: 1>
refcount: 1>
Note: For starting DM, Qtot, Tr[D*S] =         58.00000000         57.89552098
No. of atoms with KB's overlaping orbs in proc 0. Max # of overlaps:      21     163

InitMesh: MESH = 192 x 162 x 150 = 4665600
InitMesh: Mesh cutoff (required, used) =   300.000   303.184 Ry
New grid distribution [1]: sub = 2

        iscf     Eharris(eV)        E_KS(eV)     FreeEng(eV)     dDmax    Ef(eV) dHmax(eV)
   scf:    1    -2354.179108    -2353.486888    -2353.486888  0.094359 -4.027929  0.528859
   scf:    2    -2353.165884    -2353.397977    -2353.397977  0.024685 -3.416487  1.089607
   scf:    3    -2353.528939    -2353.502610    -2353.502610  0.017765 -4.136145  0.043603
   scf:    4    -2353.502830    -2353.502730    -2353.502730  0.001246 -4.144889  0.022266
   scf:    5    -2353.502812    -2353.502776    -2353.502776  0.001030 -4.152340  0.006202
   scf:    6    -2353.502785    -2353.502781    -2353.502781  0.000206 -4.153314  0.003286
   scf:    7    -2353.502785    -2353.502783    -2353.502783  0.000228 -4.154209  0.000642
   scf:    8    -2353.502783    -2353.502783    -2353.502783  0.000047 -4.154280  0.000383

SCF Convergence by DM+H criterion
max |DM_out - DM_in|         :     0.0000469926
max |H_out - H_in|      (eV) :     0.0003832020
SCF cycle converged after 8 iterations

Using DM_out to compute the final energy and forces
No. of atoms with KB's overlaping orbs in proc 0. Max # of overlaps:      21     163

siesta: E_KS(eV) =            -2353.5028

siesta: Atomic forces (eV/Ang):
----------------------------------------
   Tot    0.001284    0.002638    0.003683
----------------------------------------
   Max    0.836712
   Res    0.309621    sqrt( Sum f_i^2 / 3N )
----------------------------------------
   Max    0.836712    constrained

Stress tensor Voigt[x,y,z,yz,xz,xy] (kbar):       -2.58       -0.64       -0.60       -0.21        1.41        0.57
(Free)E + p*V (eV/cell)    -2350.4127
Target enthalpy (eV/cell)    -2353.5028

                     ====================================
                        Begin CG opt. move =      7
                     ====================================

outcell: Unit cell vectors (Ang):
       17.697195    0.000000    0.000000
        0.000000   15.467246    0.000000
        0.000000    0.000000   14.225964

outcell: Cell vector modules (Ang)   :   17.697195   15.467246   14.225964
outcell: Cell angles (23,13,12) (deg):     90.0000     90.0000     90.0000
outcell: Cell volume (Ang**3)        :   3894.0286
<dSpData1D:S at geom step 7
  <sparsity:sparsity for geom step 7
    nrows_g=193 nrows=193 sparsity=.9625 nnzs=35851, refcount: 7>
  <dData1D:(new from dSpData1D) n=35851, refcount: 1>
refcount: 1>
new_DM -- step:     8
Re-using DM from previous geometries...
Number of DMs in history: 1
 DM extrapolation coefficients: 
1   1.00000
New DM after history re-use:
<dSpData2D:SpM extrapolated using coords
  <sparsity:sparsity for geom step 7
    nrows_g=193 nrows=193 sparsity=.9625 nnzs=35851, refcount: 9>
  <dData2D:(temp array for extrapolation) n=35851 m=1, refcount: 1>
refcount: 1>
Note: For starting DM, Qtot, Tr[D*S] =         58.00000000         57.81130048
No. of atoms with KB's overlaping orbs in proc 0. Max # of overlaps:      21     160

InitMesh: MESH = 192 x 162 x 150 = 4665600
InitMesh: Mesh cutoff (required, used) =   300.000   303.184 Ry
New grid distribution [1]: sub = 2

        iscf     Eharris(eV)        E_KS(eV)     FreeEng(eV)     dDmax    Ef(eV) dHmax(eV)
   scf:    1    -2354.234535    -2353.286018    -2353.286018  0.132760 -3.755046  0.971062
   scf:    2    -2351.885416    -2352.889234    -2352.889234  0.050714 -3.937524  2.158005
   scf:    3    -2353.450394    -2353.342684    -2353.342684  0.037494 -3.477320  0.083296
   scf:    4    -2353.343401    -2353.343081    -2353.343081  0.002289 -3.491929  0.039517
   scf:    5    -2353.343334    -2353.343226    -2353.343226  0.001911 -3.505828  0.010485
   scf:    6    -2353.343252    -2353.343240    -2353.343240  0.000266 -3.507547  0.006134
   scf:    7    -2353.343249    -2353.343245    -2353.343245  0.000243 -3.508725  0.002196
   scf:    8    -2353.343246    -2353.343245    -2353.343245  0.000131 -3.509219  0.000668
   scf:    9    -2353.343246    -2353.343245    -2353.343245  0.000050 -3.509335  0.000416

SCF Convergence by DM+H criterion
max |DM_out - DM_in|         :     0.0000504875
max |H_out - H_in|      (eV) :     0.0004164672
SCF cycle converged after 9 iterations

Using DM_out to compute the final energy and forces
No. of atoms with KB's overlaping orbs in proc 0. Max # of overlaps:      21     160

siesta: E_KS(eV) =            -2353.3432

siesta: Atomic forces (eV/Ang):
----------------------------------------
   Tot   -0.001672    0.001712    0.001592
----------------------------------------
   Max    2.492639
   Res    0.785396    sqrt( Sum f_i^2 / 3N )
----------------------------------------
   Max    2.492639    constrained

Stress tensor Voigt[x,y,z,yz,xz,xy] (kbar):       -0.76        3.06        0.13        0.49        0.53       -0.15
(Free)E + p*V (eV/cell)    -2355.3103
Target enthalpy (eV/cell)    -2353.3432

                     ====================================
                        Begin CG opt. move =      8
                     ====================================

outcell: Unit cell vectors (Ang):
       17.697195    0.000000    0.000000
        0.000000   15.467246    0.000000
        0.000000    0.000000   14.225964

outcell: Cell vector modules (Ang)   :   17.697195   15.467246   14.225964
outcell: Cell angles (23,13,12) (deg):     90.0000     90.0000     90.0000
outcell: Cell volume (Ang**3)        :   3894.0286
<dSpData1D:S at geom step 8
  <sparsity:sparsity for geom step 8
    nrows_g=193 nrows=193 sparsity=.9628 nnzs=35865, refcount: 7>
  <dData1D:(new from dSpData1D) n=35865, refcount: 1>
refcount: 1>
new_DM -- step:     9
Re-using DM from previous geometries...
Number of DMs in history: 1
 DM extrapolation coefficients: 
1   1.00000
New DM after history re-use:
<dSpData2D:SpM extrapolated using coords
  <sparsity:sparsity for geom step 8
    nrows_g=193 nrows=193 sparsity=.9628 nnzs=35865, refcount: 9>
  <dData2D:(temp array for extrapolation) n=35865 m=1, refcount: 1>
refcount: 1>
Note: For starting DM, Qtot, Tr[D*S] =         58.00000000         58.15666352
No. of atoms with KB's overlaping orbs in proc 0. Max # of overlaps:      21     160

InitMesh: MESH = 192 x 162 x 150 = 4665600
InitMesh: Mesh cutoff (required, used) =   300.000   303.184 Ry
New grid distribution [1]: sub = 2

        iscf     Eharris(eV)        E_KS(eV)     FreeEng(eV)     dDmax    Ef(eV) dHmax(eV)
   scf:    1    -2352.549445    -2353.476408    -2353.476408  0.106057 -3.442164  0.777820
   scf:    2    -2352.672113    -2353.250161    -2353.250161  0.039610 -3.873330  1.695719
   scf:    3    -2353.573184    -2353.511014    -2353.511014  0.028932 -4.239787  0.069600
   scf:    4    -2353.511503    -2353.511285    -2353.511285  0.001833 -4.225097  0.034090
   scf:    5    -2353.511441    -2353.511374    -2353.511374  0.001484 -4.214237  0.009544
   scf:    6    -2353.511393    -2353.511384    -2353.511384  0.000261 -4.212457  0.004927
   scf:    7    -2353.511390    -2353.511387    -2353.511387  0.000236 -4.211286  0.001295
   scf:    8    -2353.511388    -2353.511387    -2353.511387  0.000083 -4.211071  0.000621

SCF Convergence by DM+H criterion
max |DM_out - DM_in|         :     0.0000834784
max |H_out - H_in|      (eV) :     0.0006209560
SCF cycle converged after 8 iterations

Using DM_out to compute the final energy and forces
No. of atoms with KB's overlaping orbs in proc 0. Max # of overlaps:      21     160

siesta: E_KS(eV) =            -2353.5114

siesta: Atomic forces (eV/Ang):
----------------------------------------
   Tot    0.000522    0.002758    0.003285
----------------------------------------
   Max    1.027309
   Res    0.363680    sqrt( Sum f_i^2 / 3N )
----------------------------------------
   Max    1.027309    constrained

Stress tensor Voigt[x,y,z,yz,xz,xy] (kbar):       -2.22        0.12       -0.46       -0.07        1.24        0.43
(Free)E + p*V (eV/cell)    -2351.4412
Target enthalpy (eV/cell)    -2353.5114

cgvc: Finished line minimization    3.  Mean atomic displacement =    0.0560

                     ====================================
                        Begin CG opt. move =      9
                     ====================================

outcell: Unit cell vectors (Ang):
       17.697195    0.000000    0.000000
        0.000000   15.467246    0.000000
        0.000000    0.000000   14.225964

outcell: Cell vector modules (Ang)   :   17.697195   15.467246   14.225964
outcell: Cell angles (23,13,12) (deg):     90.0000     90.0000     90.0000
outcell: Cell volume (Ang**3)        :   3894.0286
<dSpData1D:S at geom step 9
  <sparsity:sparsity for geom step 9
    nrows_g=193 nrows=193 sparsity=.9625 nnzs=35851, refcount: 7>
  <dData1D:(new from dSpData1D) n=35851, refcount: 1>
refcount: 1>
new_DM -- step:    10
Re-using DM from previous geometries...
Number of DMs in history: 1
 DM extrapolation coefficients: 
1   1.00000
New DM after history re-use:
<dSpData2D:SpM extrapolated using coords
  <sparsity:sparsity for geom step 9
    nrows_g=193 nrows=193 sparsity=.9625 nnzs=35851, refcount: 9>
  <dData2D:(temp array for extrapolation) n=35851 m=1, refcount: 1>
refcount: 1>
No. of atoms with KB's overlaping orbs in proc 0. Max # of overlaps:      21     160

InitMesh: MESH = 192 x 162 x 150 = 4665600
InitMesh: Mesh cutoff (required, used) =   300.000   303.184 Ry
New grid distribution [1]: sub = 2

        iscf     Eharris(eV)        E_KS(eV)     FreeEng(eV)     dDmax    Ef(eV) dHmax(eV)
   scf:    1    -2353.515509    -2353.451835    -2353.451835  0.083039 -4.273205  1.788787
   scf:    2    -2349.547742    -2352.372711    -2352.372711  0.107179 -3.636147  3.722507
   scf:    3    -2353.982875    -2353.638746    -2353.638746  0.075143 -3.373077  0.113354
   scf:    4    -2353.640241    -2353.639591    -2353.639591  0.001804 -3.368078  0.050626
   scf:    5    -2353.639981    -2353.639821    -2353.639821  0.001073 -3.367550  0.016398
   scf:    6    -2353.639860    -2353.639842    -2353.639842  0.000378 -3.368576  0.006109
   scf:    7    -2353.639851    -2353.639847    -2353.639847  0.000250 -3.369597  0.002763
   scf:    8    -2353.639850    -2353.639848    -2353.639848  0.000213 -3.370469  0.000678
   scf:    9    -2353.639849    -2353.639849    -2353.639849  0.000054 -3.370637  0.000545

SCF Convergence by DM+H criterion
max |DM_out - DM_in|         :     0.0000543001
max |H_out - H_in|      (eV) :     0.0005450836
SCF cycle converged after 9 iterations

Using DM_out to compute the final energy and forces
No. of atoms with KB's overlaping orbs in proc 0. Max # of overlaps:      21     160

siesta: E_KS(eV) =            -2353.6398

siesta: Atomic forces (eV/Ang):
----------------------------------------
   Tot   -0.000733    0.001111    0.002727
----------------------------------------
   Max    0.819926
   Res    0.310782    sqrt( Sum f_i^2 / 3N )
----------------------------------------
   Max    0.819926    constrained

Stress tensor Voigt[x,y,z,yz,xz,xy] (kbar):       -1.05        0.83       -0.34        0.21        0.51        0.46
(Free)E + p*V (eV/cell)    -2353.1819
Target enthalpy (eV/cell)    -2353.6398

                     ====================================
                        Begin CG opt. move =     10
                     ====================================

outcell: Unit cell vectors (Ang):
       17.697195    0.000000    0.000000
        0.000000   15.467246    0.000000
        0.000000    0.000000   14.225964

outcell: Cell vector modules (Ang)   :   17.697195   15.467246   14.225964
outcell: Cell angles (23,13,12) (deg):     90.0000     90.0000     90.0000
outcell: Cell volume (Ang**3)        :   3894.0286
<dSpData1D:S at geom step 10
  <sparsity:sparsity for geom step 10
    nrows_g=193 nrows=193 sparsity=.9625 nnzs=35851, refcount: 7>
  <dData1D:(new from dSpData1D) n=35851, refcount: 1>
refcount: 1>
new_DM -- step:    11
Re-using DM from previous geometries...
Number of DMs in history: 1
 DM extrapolation coefficients: 
1   1.00000
New DM after history re-use:
<dSpData2D:SpM extrapolated using coords
  <sparsity:sparsity for geom step 10
    nrows_g=193 nrows=193 sparsity=.9625 nnzs=35851, refcount: 9>
  <dData2D:(temp array for extrapolation) n=35851 m=1, refcount: 1>
refcount: 1>
No. of atoms with KB's overlaping orbs in proc 0. Max # of overlaps:      21     160

InitMesh: MESH = 192 x 162 x 150 = 4665600
InitMesh: Mesh cutoff (required, used) =   300.000   303.184 Ry
New grid distribution [1]: sub = 2

        iscf     Eharris(eV)        E_KS(eV)     FreeEng(eV)     dDmax    Ef(eV) dHmax(eV)
   scf:    1    -2353.608029    -2353.639690    -2353.639690  0.005053 -3.366740  0.119859
   scf:    2    -2353.621467    -2353.634613    -2353.634613  0.006919 -3.346621  0.251663
   scf:    3    -2353.642045    -2353.640522    -2353.640522  0.004729 -3.362125  0.008450
   scf:    4    -2353.640528    -2353.640525    -2353.640525  0.000130 -3.362239  0.002921
   scf:    5    -2353.640527    -2353.640526    -2353.640526  0.000065 -3.362269  0.000985

SCF Convergence by DM+H criterion
max |DM_out - DM_in|         :     0.0000645511
max |H_out - H_in|      (eV) :     0.0009851580
SCF cycle converged after 5 iterations

Using DM_out to compute the final energy and forces
No. of atoms with KB's overlaping orbs in proc 0. Max # of overlaps:      21     160

siesta: E_KS(eV) =            -2353.6405

siesta: Atomic forces (eV/Ang):
----------------------------------------
   Tot   -0.000640    0.001034    0.002665
----------------------------------------
   Max    0.738173
   Res    0.288915    sqrt( Sum f_i^2 / 3N )
----------------------------------------
   Max    0.738173    constrained

Stress tensor Voigt[x,y,z,yz,xz,xy] (kbar):       -1.12        0.78       -0.34        0.19        0.55        0.46
(Free)E + p*V (eV/cell)    -2353.0871
Target enthalpy (eV/cell)    -2353.6405

cgvc: Finished line minimization    4.  Mean atomic displacement =    0.0523

                     ====================================
                        Begin CG opt. move =     11
                     ====================================

outcell: Unit cell vectors (Ang):
       17.697195    0.000000    0.000000
        0.000000   15.467246    0.000000
        0.000000    0.000000   14.225964

outcell: Cell vector modules (Ang)   :   17.697195   15.467246   14.225964
outcell: Cell angles (23,13,12) (deg):     90.0000     90.0000     90.0000
outcell: Cell volume (Ang**3)        :   3894.0286
<dSpData1D:S at geom step 11
  <sparsity:sparsity for geom step 11
    nrows_g=193 nrows=193 sparsity=.9606 nnzs=35781, refcount: 7>
  <dData1D:(new from dSpData1D) n=35781, refcount: 1>
refcount: 1>
new_DM -- step:    12
Re-using DM from previous geometries...
Number of DMs in history: 1
 DM extrapolation coefficients: 
1   1.00000
New DM after history re-use:
<dSpData2D:SpM extrapolated using coords
  <sparsity:sparsity for geom step 11
    nrows_g=193 nrows=193 sparsity=.9606 nnzs=35781, refcount: 9>
  <dData2D:(temp array for extrapolation) n=35781 m=1, refcount: 1>
refcount: 1>
No. of atoms with KB's overlaping orbs in proc 0. Max # of overlaps:      21     160

InitMesh: MESH = 192 x 162 x 150 = 4665600
InitMesh: Mesh cutoff (required, used) =   300.000   303.184 Ry
New grid distribution [1]: sub = 2

        iscf     Eharris(eV)        E_KS(eV)     FreeEng(eV)     dDmax    Ef(eV) dHmax(eV)
   scf:    1    -2353.519808    -2353.645050    -2353.645050  0.071501 -3.659326  1.041837
   scf:    2    -2352.334137    -2353.277564    -2353.277564  0.038101 -3.354484  2.723066
   scf:    3    -2353.809334    -2353.701687    -2353.701687  0.028937 -3.569891  0.058586
   scf:    4    -2353.702131    -2353.701933    -2353.701933  0.000774 -3.563215  0.030690
   scf:    5    -2353.702087    -2353.702020    -2353.702020  0.000868 -3.558990  0.008985
   scf:    6    -2353.702040    -2353.702030    -2353.702030  0.000364 -3.558193  0.003234
   scf:    7    -2353.702034    -2353.702032    -2353.702032  0.000183 -3.558107  0.000859
   scf:    8    -2353.702033    -2353.702033    -2353.702033  0.000086 -3.558154  0.000581

SCF Convergence by DM+H criterion
max |DM_out - DM_in|         :     0.0000861371
max |H_out - H_in|      (eV) :     0.0005811301
SCF cycle converged after 8 iterations

Using DM_out to compute the final energy and forces
No. of atoms with KB's overlaping orbs in proc 0. Max # of overlaps:      21     160

siesta: E_KS(eV) =            -2353.7020

siesta: Atomic forces (eV/Ang):
----------------------------------------
   Tot   -0.004110    0.006662    0.004684
----------------------------------------
   Max    1.468415
   Res    0.371257    sqrt( Sum f_i^2 / 3N )
----------------------------------------
   Max    1.468415    constrained

Stress tensor Voigt[x,y,z,yz,xz,xy] (kbar):       -0.63        0.06       -0.23        0.25        0.35       -0.08
(Free)E + p*V (eV/cell)    -2353.0498
Target enthalpy (eV/cell)    -2353.7020

                     ====================================
                        Begin CG opt. move =     12
                     ====================================

outcell: Unit cell vectors (Ang):
       17.697195    0.000000    0.000000
        0.000000   15.467246    0.000000
        0.000000    0.000000   14.225964

outcell: Cell vector modules (Ang)   :   17.697195   15.467246   14.225964
outcell: Cell angles (23,13,12) (deg):     90.0000     90.0000     90.0000
outcell: Cell volume (Ang**3)        :   3894.0286
<dSpData1D:S at geom step 12
  <sparsity:sparsity for geom step 12
    nrows_g=193 nrows=193 sparsity=.9606 nnzs=35781, refcount: 7>
  <dData1D:(new from dSpData1D) n=35781, refcount: 1>
refcount: 1>
new_DM -- step:    13
Re-using DM from previous geometries...
Number of DMs in history: 1
 DM extrapolation coefficients: 
1   1.00000
New DM after history re-use:
<dSpData2D:SpM extrapolated using coords
  <sparsity:sparsity for geom step 12
    nrows_g=193 nrows=193 sparsity=.9606 nnzs=35781, refcount: 9>
  <dData2D:(temp array for extrapolation) n=35781 m=1, refcount: 1>
refcount: 1>
No. of atoms with KB's overlaping orbs in proc 0. Max # of overlaps:      21     160

InitMesh: MESH = 192 x 162 x 150 = 4665600
InitMesh: Mesh cutoff (required, used) =   300.000   303.184 Ry
New grid distribution [1]: sub = 2

        iscf     Eharris(eV)        E_KS(eV)     FreeEng(eV)     dDmax    Ef(eV) dHmax(eV)
   scf:    1    -2353.702081    -2353.707351    -2353.707351  0.017738 -3.483673  0.278695
   scf:    2    -2353.616533    -2353.681860    -2353.681860  0.010255 -3.563373  0.730417
   scf:    3    -2353.718687    -2353.711245    -2353.711245  0.007773 -3.505997  0.013958
   scf:    4    -2353.711273    -2353.711260    -2353.711260  0.000206 -3.507430  0.007724
   scf:    5    -2353.711271    -2353.711266    -2353.711266  0.000239 -3.508541  0.002081
   scf:    6    -2353.711267    -2353.711267    -2353.711267  0.000081 -3.508673  0.000834

SCF Convergence by DM+H criterion
max |DM_out - DM_in|         :     0.0000812073
max |H_out - H_in|      (eV) :     0.0008335242
SCF cycle converged after 6 iterations

Using DM_out to compute the final energy and forces
No. of atoms with KB's overlaping orbs in proc 0. Max # of overlaps:      21     160

siesta: E_KS(eV) =            -2353.7113

siesta: Atomic forces (eV/Ang):
----------------------------------------
   Tot   -0.003423    0.006713    0.004491
----------------------------------------
   Max    0.910804
   Res    0.263323    sqrt( Sum f_i^2 / 3N )
----------------------------------------
   Max    0.910804    constrained

Stress tensor Voigt[x,y,z,yz,xz,xy] (kbar):       -0.74        0.27       -0.25        0.24        0.40        0.06
(Free)E + p*V (eV/cell)    -2353.1201
Target enthalpy (eV/cell)    -2353.7113

cgvc: Finished line minimization    5.  Mean atomic displacement =    0.0386

                     ====================================
                        Begin CG opt. move =     13
                     ====================================

outcell: Unit cell vectors (Ang):
       17.697195    0.000000    0.000000
        0.000000   15.467246    0.000000
        0.000000    0.000000   14.225964

outcell: Cell vector modules (Ang)   :   17.697195   15.467246   14.225964
outcell: Cell angles (23,13,12) (deg):     90.0000     90.0000     90.0000
outcell: Cell volume (Ang**3)        :   3894.0286
<dSpData1D:S at geom step 13
  <sparsity:sparsity for geom step 13
    nrows_g=193 nrows=193 sparsity=.9605 nnzs=35779, refcount: 7>
  <dData1D:(new from dSpData1D) n=35779, refcount: 1>
refcount: 1>
new_DM -- step:    14
Re-using DM from previous geometries...
Number of DMs in history: 1
 DM extrapolation coefficients: 
1   1.00000
New DM after history re-use:
<dSpData2D:SpM extrapolated using coords
  <sparsity:sparsity for geom step 13
    nrows_g=193 nrows=193 sparsity=.9605 nnzs=35779, refcount: 9>
  <dData2D:(temp array for extrapolation) n=35779 m=1, refcount: 1>
refcount: 1>
No. of atoms with KB's overlaping orbs in proc 0. Max # of overlaps:      21     160

InitMesh: MESH = 192 x 162 x 150 = 4665600
InitMesh: Mesh cutoff (required, used) =   300.000   303.184 Ry
New grid distribution [1]: sub = 2

        iscf     Eharris(eV)        E_KS(eV)     FreeEng(eV)     dDmax    Ef(eV) dHmax(eV)
   scf:    1    -2353.678860    -2353.757462    -2353.757462  0.028416 -3.541094  0.603908
   scf:    2    -2353.326182    -2353.635697    -2353.635697  0.030880 -4.164045  1.535744
   scf:    3    -2353.808934    -2353.775321    -2353.775321  0.023060 -3.451209  0.047376
   scf:    4    -2353.775580    -2353.775461    -2353.775461  0.000567 -3.445344  0.024793
   scf:    5    -2353.775560    -2353.775518    -2353.775518  0.000725 -3.440654  0.005992
   scf:    6    -2353.775526    -2353.775522    -2353.775522  0.000284 -3.439537  0.001356
   scf:    7    -2353.775523    -2353.775523    -2353.775523  0.000124 -3.439275  0.000723
   scf:    8    -2353.775523    -2353.775523    -2353.775523  0.000077 -3.439188  0.000343

SCF Convergence by DM+H criterion
max |DM_out - DM_in|         :     0.0000765618
max |H_out - H_in|      (eV) :     0.0003431072
SCF cycle converged after 8 iterations

Using DM_out to compute the final energy and forces
No. of atoms with KB's overlaping orbs in proc 0. Max # of overlaps:      21     160

siesta: E_KS(eV) =            -2353.7755

siesta: Atomic forces (eV/Ang):
----------------------------------------
   Tot   -0.005627    0.005023    0.004347
----------------------------------------
   Max    0.516439
   Res    0.201879    sqrt( Sum f_i^2 / 3N )
----------------------------------------
   Max    0.516439    constrained

Stress tensor Voigt[x,y,z,yz,xz,xy] (kbar):       -0.59       -0.55       -0.07       -0.05        0.28        0.23
(Free)E + p*V (eV/cell)    -2352.7947
Target enthalpy (eV/cell)    -2353.7755

                     ====================================
                        Begin CG opt. move =     14
                     ====================================

outcell: Unit cell vectors (Ang):
       17.697195    0.000000    0.000000
        0.000000   15.467246    0.000000
        0.000000    0.000000   14.225964

outcell: Cell vector modules (Ang)   :   17.697195   15.467246   14.225964
outcell: Cell angles (23,13,12) (deg):     90.0000     90.0000     90.0000
outcell: Cell volume (Ang**3)        :   3894.0286
<dSpData1D:S at geom step 14
  <sparsity:sparsity for geom step 14
    nrows_g=193 nrows=193 sparsity=.9555 nnzs=35591, refcount: 7>
  <dData1D:(new from dSpData1D) n=35591, refcount: 1>
refcount: 1>
new_DM -- step:    15
Re-using DM from previous geometries...
Number of DMs in history: 1
 DM extrapolation coefficients: 
1   1.00000
New DM after history re-use:
<dSpData2D:SpM extrapolated using coords
  <sparsity:sparsity for geom step 14
    nrows_g=193 nrows=193 sparsity=.9555 nnzs=35591, refcount: 9>
  <dData2D:(temp array for extrapolation) n=35591 m=1, refcount: 1>
refcount: 1>
No. of atoms with KB's overlaping orbs in proc 0. Max # of overlaps:      21     159

InitMesh: MESH = 192 x 162 x 150 = 4665600
InitMesh: Mesh cutoff (required, used) =   300.000   303.184 Ry
New grid distribution [1]: sub = 2

        iscf     Eharris(eV)        E_KS(eV)     FreeEng(eV)     dDmax    Ef(eV) dHmax(eV)
   scf:    1    -2353.396439    -2353.636213    -2353.636213  0.044905 -3.510440  0.973473
   scf:    2    -2352.471826    -2353.305886    -2353.305886  0.052193 -3.996008  2.489220
   scf:    3    -2353.770132    -2353.682732    -2353.682732  0.039603 -3.380183  0.082313
   scf:    4    -2353.683466    -2353.683137    -2353.683137  0.000894 -3.370806  0.040904
   scf:    5    -2353.683390    -2353.683279    -2353.683279  0.001158 -3.364554  0.011682
   scf:    6    -2353.683307    -2353.683295    -2353.683295  0.000550 -3.362505  0.002440
   scf:    7    -2353.683299    -2353.683297    -2353.683297  0.000215 -3.362013  0.001166
   scf:    8    -2353.683298    -2353.683297    -2353.683297  0.000125 -3.361852  0.000563
   scf:    9    -2353.683298    -2353.683297    -2353.683297  0.000058 -3.361841  0.000404

SCF Convergence by DM+H criterion
max |DM_out - DM_in|         :     0.0000578248
max |H_out - H_in|      (eV) :     0.0004035303
SCF cycle converged after 9 iterations

Using DM_out to compute the final energy and forces
No. of atoms with KB's overlaping orbs in proc 0. Max # of overlaps:      21     159

siesta: E_KS(eV) =            -2353.6833

siesta: Atomic forces (eV/Ang):
----------------------------------------
   Tot    0.000865    0.000180   -0.003043
----------------------------------------
   Max    1.986968
   Res    0.595690    sqrt( Sum f_i^2 / 3N )
----------------------------------------
   Max    1.986968    constrained

Stress tensor Voigt[x,y,z,yz,xz,xy] (kbar):       -0.38       -1.86        0.17       -0.50        0.11        0.51
(Free)E + p*V (eV/cell)    -2352.0120
Target enthalpy (eV/cell)    -2353.6833

                     ====================================
                        Begin CG opt. move =     15
                     ====================================

outcell: Unit cell vectors (Ang):
       17.697195    0.000000    0.000000
        0.000000   15.467246    0.000000
        0.000000    0.000000   14.225964

outcell: Cell vector modules (Ang)   :   17.697195   15.467246   14.225964
outcell: Cell angles (23,13,12) (deg):     90.0000     90.0000     90.0000
outcell: Cell volume (Ang**3)        :   3894.0286
<dSpData1D:S at geom step 15
  <sparsity:sparsity for geom step 15
    nrows_g=193 nrows=193 sparsity=.9563 nnzs=35621, refcount: 7>
  <dData1D:(new from dSpData1D) n=35621, refcount: 1>
refcount: 1>
new_DM -- step:    16
[...]
   scf:    2    -2353.775457    -2353.801216    -2353.801216  0.008038 -3.300640  0.516238
   scf:    3    -2353.815755    -2353.812814    -2353.812814  0.005542 -3.317230  0.015650
   scf:    4    -2353.812854    -2353.812836    -2353.812836  0.000419 -3.316201  0.008749
   scf:    5    -2353.812852    -2353.812845    -2353.812845  0.000438 -3.315456  0.002425
   scf:    6    -2353.812846    -2353.812846    -2353.812846  0.000074 -3.315484  0.001167
   scf:    7    -2353.812846    -2353.812846    -2353.812846  0.000063 -3.315511  0.000286

SCF Convergence by DM+H criterion
max |DM_out - DM_in|         :     0.0000625910
max |H_out - H_in|      (eV) :     0.0002856577
SCF cycle converged after 7 iterations

Using DM_out to compute the final energy and forces
No. of atoms with KB's overlaping orbs in proc 0. Max # of overlaps:      21     159

siesta: E_KS(eV) =            -2353.8128

siesta: Atomic forces (eV/Ang):
----------------------------------------
   Tot   -0.000489    0.000578   -0.001056
----------------------------------------
   Max    0.607063
   Res    0.166137    sqrt( Sum f_i^2 / 3N )
----------------------------------------
   Max    0.607063    constrained

Stress tensor Voigt[x,y,z,yz,xz,xy] (kbar):       -0.52       -1.01       -0.09        0.15        0.22       -0.24
(Free)E + p*V (eV/cell)    -2352.4957
Target enthalpy (eV/cell)    -2353.8128

cgvc: Finished line minimization    7.  Mean atomic displacement =    0.0292

                     ====================================
                        Begin CG opt. move =     18
                     ====================================

outcell: Unit cell vectors (Ang):
       17.697195    0.000000    0.000000
        0.000000   15.467246    0.000000
        0.000000    0.000000   14.225964

outcell: Cell vector modules (Ang)   :   17.697195   15.467246   14.225964
outcell: Cell angles (23,13,12) (deg):     90.0000     90.0000     90.0000
outcell: Cell volume (Ang**3)        :   3894.0286
<dSpData1D:S at geom step 18
  <sparsity:sparsity for geom step 18
    nrows_g=193 nrows=193 sparsity=.9555 nnzs=35591, refcount: 7>
  <dData1D:(new from dSpData1D) n=35591, refcount: 1>
refcount: 1>
new_DM -- step:    19
Re-using DM from previous geometries...
Number of DMs in history: 1
 DM extrapolation coefficients: 
1   1.00000
New DM after history re-use:
<dSpData2D:SpM extrapolated using coords
  <sparsity:sparsity for geom step 18
    nrows_g=193 nrows=193 sparsity=.9555 nnzs=35591, refcount: 9>
  <dData2D:(temp array for extrapolation) n=35591 m=1, refcount: 1>
refcount: 1>
No. of atoms with KB's overlaping orbs in proc 0. Max # of overlaps:      21     159

InitMesh: MESH = 192 x 162 x 150 = 4665600
InitMesh: Mesh cutoff (required, used) =   300.000   303.184 Ry
New grid distribution [1]: sub = 2

        iscf     Eharris(eV)        E_KS(eV)     FreeEng(eV)     dDmax    Ef(eV) dHmax(eV)
   scf:    1    -2353.777999    -2353.827041    -2353.827041  0.022584 -3.397665  0.502979
   scf:    2    -2353.515433    -2353.740155    -2353.740155  0.026975 -3.634730  1.270917
   scf:    3    -2353.867469    -2353.841068    -2353.841068  0.019339 -3.456655  0.030855
   scf:    4    -2353.841184    -2353.841131    -2353.841131  0.000501 -3.458029  0.018973
   scf:    5    -2353.841185    -2353.841161    -2353.841161  0.000471 -3.460675  0.005050
   scf:    6    -2353.841167    -2353.841164    -2353.841164  0.000175 -3.461717  0.001481
   scf:    7    -2353.841165    -2353.841165    -2353.841165  0.000111 -3.462271  0.000552
   scf:    8    -2353.841165    -2353.841165    -2353.841165  0.000031 -3.462343  0.000367

SCF Convergence by DM+H criterion
max |DM_out - DM_in|         :     0.0000310409
max |H_out - H_in|      (eV) :     0.0003674683
SCF cycle converged after 8 iterations

Using DM_out to compute the final energy and forces
No. of atoms with KB's overlaping orbs in proc 0. Max # of overlaps:      21     159

siesta: E_KS(eV) =            -2353.8412

siesta: Atomic forces (eV/Ang):
----------------------------------------
   Tot    0.003013    0.002542   -0.002158
----------------------------------------
   Max    0.410682
   Res    0.147134    sqrt( Sum f_i^2 / 3N )
----------------------------------------
   Max    0.410682    constrained

Stress tensor Voigt[x,y,z,yz,xz,xy] (kbar):       -0.09       -0.64       -0.11        0.06        0.05       -0.05
(Free)E + p*V (eV/cell)    -2353.1645
Target enthalpy (eV/cell)    -2353.8412

                     ====================================
                        Begin CG opt. move =     19
                     ====================================

outcell: Unit cell vectors (Ang):
       17.697195    0.000000    0.000000
        0.000000   15.467246    0.000000
        0.000000    0.000000   14.225964

outcell: Cell vector modules (Ang)   :   17.697195   15.467246   14.225964
outcell: Cell angles (23,13,12) (deg):     90.0000     90.0000     90.0000
outcell: Cell volume (Ang**3)        :   3894.0286
<dSpData1D:S at geom step 19
  <sparsity:sparsity for geom step 19
    nrows_g=193 nrows=193 sparsity=.9546 nnzs=35557, refcount: 7>
  <dData1D:(new from dSpData1D) n=35557, refcount: 1>
refcount: 1>
new_DM -- step:    20
Re-using DM from previous geometries...
Number of DMs in history: 1
 DM extrapolation coefficients: 
1   1.00000
New DM after history re-use:
<dSpData2D:SpM extrapolated using coords
  <sparsity:sparsity for geom step 19
    nrows_g=193 nrows=193 sparsity=.9546 nnzs=35557, refcount: 9>
  <dData2D:(temp array for extrapolation) n=35557 m=1, refcount: 1>
refcount: 1>
No. of atoms with KB's overlaping orbs in proc 0. Max # of overlaps:      21     157

InitMesh: MESH = 192 x 162 x 150 = 4665600
InitMesh: Mesh cutoff (required, used) =   300.000   303.184 Ry
New grid distribution [1]: sub = 2

        iscf     Eharris(eV)        E_KS(eV)     FreeEng(eV)     dDmax    Ef(eV) dHmax(eV)
   scf:    1    -2353.573370    -2353.730946    -2353.730946  0.034449 -3.595713  0.845555
   scf:    2    -2352.828964    -2353.479309    -2353.479309  0.045194 -4.023475  2.134014
   scf:    3    -2353.848513    -2353.771159    -2353.771159  0.032170 -3.701925  0.046734
   scf:    4    -2353.771467    -2353.771327    -2353.771327  0.000845 -3.703706  0.030734
   scf:    5    -2353.771468    -2353.771404    -2353.771404  0.000705 -3.708056  0.010522
   scf:    6    -2353.771426    -2353.771416    -2353.771416  0.000357 -3.710321  0.002350
   scf:    7    -2353.771418    -2353.771417    -2353.771417  0.000147 -3.711067  0.000831
   scf:    8    -2353.771418    -2353.771417    -2353.771417  0.000070 -3.711280  0.000601

SCF Convergence by DM+H criterion
max |DM_out - DM_in|         :     0.0000700374
max |H_out - H_in|      (eV) :     0.0006008323
SCF cycle converged after 8 iterations

Using DM_out to compute the final energy and forces
No. of atoms with KB's overlaping orbs in proc 0. Max # of overlaps:      21     157

siesta: E_KS(eV) =            -2353.7714

siesta: Atomic forces (eV/Ang):
----------------------------------------
   Tot    0.008201    0.001144   -0.000471
----------------------------------------
   Max    1.430997
   Res    0.461202    sqrt( Sum f_i^2 / 3N )
----------------------------------------
   Max    1.430997    constrained

Stress tensor Voigt[x,y,z,yz,xz,xy] (kbar):        0.58       -0.06       -0.15       -0.10       -0.21        0.22
(Free)E + p*V (eV/cell)    -2354.0687
Target enthalpy (eV/cell)    -2353.7714

                     ====================================
                        Begin CG opt. move =     20
                     ====================================

outcell: Unit cell vectors (Ang):
       17.697195    0.000000    0.000000
        0.000000   15.467246    0.000000
        0.000000    0.000000   14.225964

outcell: Cell vector modules (Ang)   :   17.697195   15.467246   14.225964
outcell: Cell angles (23,13,12) (deg):     90.0000     90.0000     90.0000
outcell: Cell volume (Ang**3)        :   3894.0286
<dSpData1D:S at geom step 20
  <sparsity:sparsity for geom step 20
    nrows_g=193 nrows=193 sparsity=.9555 nnzs=35591, refcount: 7>
  <dData1D:(new from dSpData1D) n=35591, refcount: 1>
refcount: 1>
new_DM -- step:    21
Re-using DM from previous geometries...
Number of DMs in history: 1
 DM extrapolation coefficients: 
1   1.00000
New DM after history re-use:
<dSpData2D:SpM extrapolated using coords
  <sparsity:sparsity for geom step 20
    nrows_g=193 nrows=193 sparsity=.9555 nnzs=35591, refcount: 9>
  <dData2D:(temp array for extrapolation) n=35591 m=1, refcount: 1>
refcount: 1>
No. of atoms with KB's overlaping orbs in proc 0. Max # of overlaps:      21     159

InitMesh: MESH = 192 x 162 x 150 = 4665600
InitMesh: Mesh cutoff (required, used) =   300.000   303.184 Ry
New grid distribution [1]: sub = 2

        iscf     Eharris(eV)        E_KS(eV)     FreeEng(eV)     dDmax    Ef(eV) dHmax(eV)
   scf:    1    -2353.772052    -2353.802172    -2353.802172  0.034075 -3.583093  0.837162
   scf:    2    -2352.835961    -2353.528228    -2353.528228  0.048432 -4.131130  2.202925
   scf:    3    -2353.913693    -2353.840826    -2353.840826  0.036438 -3.478084  0.064044
   scf:    4    -2353.841263    -2353.841076    -2353.841076  0.000803 -3.471622  0.031992
   scf:    5    -2353.841211    -2353.841150    -2353.841150  0.000616 -3.467520  0.011788
   scf:    6    -2353.841177    -2353.841165    -2353.841165  0.000358 -3.465205  0.003418
   scf:    7    -2353.841169    -2353.841167    -2353.841167  0.000199 -3.464121  0.000915
   scf:    8    -2353.841167    -2353.841167    -2353.841167  0.000073 -3.463860  0.000691

SCF Convergence by DM+H criterion
max |DM_out - DM_in|         :     0.0000727556
max |H_out - H_in|      (eV) :     0.0006906685
SCF cycle converged after 8 iterations

Using DM_out to compute the final energy and forces
No. of atoms with KB's overlaping orbs in proc 0. Max # of overlaps:      21     159

siesta: E_KS(eV) =            -2353.8412

siesta: Atomic forces (eV/Ang):
----------------------------------------
   Tot    0.003064    0.002550   -0.002164
----------------------------------------
   Max    0.416445
   Res    0.148548    sqrt( Sum f_i^2 / 3N )
----------------------------------------
   Max    0.416445    constrained

Stress tensor Voigt[x,y,z,yz,xz,xy] (kbar):       -0.08       -0.64       -0.11        0.06        0.04       -0.05
(Free)E + p*V (eV/cell)    -2353.1717
Target enthalpy (eV/cell)    -2353.8412

cgvc: Finished line minimization    8.  Mean atomic displacement =    0.0295

outcoor: Final (unrelaxed) atomic coordinates (Ang):        
    0.44761853   -1.39677807   -0.36614514   1       1  C
   -0.81509560   -1.24201621    0.34177662   1       2  C
   -1.12440707    0.11172022    0.60989475   1       3  C
    0.11226136    1.05401696    0.01659214   2       4  S
    1.06834673   -0.15570506   -0.60788954   1       5  C
   -2.26144808    0.65439863    1.33440486   1       6  C
   -1.61657352   -2.32574708    0.72992391   3       7  N
    0.90733985   -2.66067095   -0.77386194   3       8  N
    2.32101276    0.07979131   -1.29995474   1       9  C
   -1.12858646   -3.23765548    0.74857001   4      10  H
   -2.07398582   -2.14300299    1.63553530   4      11  H
    1.92448945   -2.70503570   -0.93839209   4      12  H
    0.65321221   -3.41593669   -0.11714210   4      13  H
    2.78399791    1.31422329   -1.68035540   1      14  C
    2.92452449   -0.82422390   -1.55918191   4      15  H
    2.13810985    2.19350798   -1.44849525   4      16  H
    3.75298098    1.45397785   -2.23181164   4      17  H
   -3.38071819   -0.09982871    1.65948281   1      18  C
   -2.23832455    1.73087673    1.62463863   4      19  H
   -3.49791677   -1.12091175    1.22865080   4      20  H
   -4.25901185    0.31606564    2.21608832   4      21  H

coxmol: Writing XMOL coordinates into file optimization.xyz                                                                                                                                                                                                                    

siesta: Program's energy decomposition (eV):
siesta: Ebs     =      -745.010255
siesta: Eions   =      4009.306222
siesta: Ena     =      1130.287062
siesta: Ekin    =      1518.991767
siesta: Enl     =       -97.316263
siesta: Eso     =         0.000000
siesta: Edftu   =         0.000000
siesta: DEna    =       -96.130763
siesta: DUscf   =         9.597388
siesta: DUext   =         0.000000
siesta: Ex      =      -743.199240
siesta: Ec      =       -66.764896
siesta: Exc     =      -809.964136
siesta: EbV     =         0.000000
siesta: eta*DQ  =         0.000000
siesta: Emadel  =         0.000000
siesta: Emeta   =         0.000000
siesta: Emolmec =         0.000000
siesta: Ekinion =         0.000000
siesta: Eharris =     -2353.841167
siesta: Etot    =     -2353.841167
siesta: FreeEng =     -2353.841167

siesta: Final energy (eV):
siesta:  Band Struct. =    -745.010255
siesta:       Kinetic =    1518.991767
siesta:       Hartree =    5537.906726
siesta:         Edftu =       0.000000
siesta:       Eso     =       0.000000
siesta:    Ext. field =       0.000000
siesta:         Exch. =    -743.199240
siesta:         Corr. =     -66.764896
siesta:     Bulk bias =       0.000000
siesta:   Exch.-corr. =    -809.964136
siesta:  Ion-electron =  -12444.608197
siesta:       Ion-ion =    3843.832674
siesta:       Ekinion =       0.000000
siesta: D3 dispersion =       0.000000
siesta:         Total =   -2353.841167
siesta:         Fermi =      -3.463860

siesta: Atomic forces (eV/Ang):
siesta:      1   -0.266010    0.178464    0.271245
siesta:      2    0.292642    0.088609   -0.056826
siesta:      3    0.057392   -0.132126    0.009873
siesta:      4   -0.028177    0.104154   -0.076136
siesta:      5   -0.003982   -0.193646   -0.005861
siesta:      6   -0.416445   -0.292368    0.026316
siesta:      7    0.053294   -0.206991   -0.185353
siesta:      8    0.070461   -0.103944   -0.107462
siesta:      9    0.035588    0.215781   -0.105564
siesta:     10    0.011026    0.018832   -0.027144
siesta:     11   -0.211945   -0.045676    0.318917
siesta:     12    0.151593    0.056849   -0.102030
siesta:     13   -0.024162   -0.130756    0.072160
siesta:     14    0.102941    0.044534   -0.090705
siesta:     15    0.027565   -0.152615   -0.003103
siesta:     16    0.085354    0.250562   -0.014852
siesta:     17   -0.205419   -0.076099    0.156250
siesta:     18    0.051517    0.183891   -0.155337
siesta:     19    0.197965    0.112463    0.047587
siesta:     20   -0.184905   -0.055335    0.060103
siesta:     21    0.206771    0.137966   -0.034242
siesta: ----------------------------------------
siesta:    Tot    0.003064    0.002550   -0.002164

siesta: Stress tensor (static) (eV/Ang**3):
siesta:    -0.000052   -0.000028    0.000027
siesta:    -0.000029   -0.000398    0.000035
siesta:     0.000027    0.000035   -0.000066

siesta: Cell volume =       3894.028578 Ang**3

siesta: Pressure (static):
siesta:                Solid            Molecule  Units
siesta:           0.00000187         -0.00000003  Ry/Bohr**3
siesta:           0.00017193         -0.00000236  eV/Ang**3
siesta:           0.27546200         -0.00377714  kBar

Basis Enthalpy Calculation:
    Basis Pressure for species 1(C) :      0.0200000 GPa
    Basis Pressure for species 2(S) :      0.0200000 GPa
    Basis Pressure for species 3(N) :      0.0200000 GPa
    Basis Pressure for species 4(H) :      0.0200000 GPa

    Orbital volume contribution        =           1.577174 eV
    (Free)E + p_basis*V_orbitals       =       -2352.263993 eV
    (Free)Eharris+ p_basis*V_orbitals  =       -2352.263993 eV
WARNING: BASIS_ENTHALPY and BASIS_HARRIS_ENTHALPY files are deprecated. They will be removed in future releases.
Please use system_label.BASIS_ENTHALPY in your scripts instead.

siesta: Electric dipole (a.u.)  =    0.316902   -1.689739    0.520166
siesta: Electric dipole (Debye) =    0.805485   -4.294888    1.322129

cite: Please indicate the Siesta version in published work: 5.4.2
cite: This calculation has made use of features in the following articles
cite: which we encourage you to cite in published work.
cite: (Please see "optimization.bib" for a BibTeX file.)
        Primary SIESTA paper
          DOI: www.doi.org/10.1088/0953-8984/14/11/302
        PSML pseudopotential format
          DOI: www.doi.org/10.1016/j.cpc.2018.02.011


timer: Elapsed wall time (sec) =     586.194
timer: CPU execution times (sec):

Routine            Calls   Time/call    Tot.time        %
siesta                 1     585.920     585.920   100.00
Setup                  1       0.241       0.241     0.04
bands                  1       0.000       0.000     0.00
KSV_init               1       0.000       0.000     0.00
IterGeom              21      27.888     585.654    99.95
geom_init             21       4.534      95.213    16.25
state_init            21       0.160       3.354     0.57
hsparse               21       0.001       0.017     0.00
overlap               21       0.005       0.106     0.02
Setup_H0              21       2.203      46.264     7.90
naefs                 42       0.000       0.003     0.00
dnaefs                21       0.000       0.001     0.00
two-body              21       0.000       0.000     0.00
MolMec                42       0.000       0.000     0.00
kinefsm               42       0.005       0.215     0.04
nlefsm                42       0.017       0.707     0.12
DHSCF_Init            21       2.188      45.941     7.84
DHSCF1                21       0.037       0.774     0.13
InitMesh              21       0.037       0.774     0.13
INITMESH              21       0.000       0.000     0.00
DHSCF2                21       2.151      45.166     7.71
REMESH                21       0.106       2.218     0.38
REORD                753       0.006       4.291     0.73
PHION                 21       1.512      31.760     5.42
COMM_BSC             939       0.004       4.024     0.69
POISON               240       0.301      72.132    12.31
fft                  480       0.124      59.615    10.17
setup_H              198       2.178     431.302    73.61
DHSCF                219       2.431     532.484    90.88
DHSCF3               219       2.174     476.013    81.24
rhoofd               219       0.657     143.919    24.56
XC                   219       0.646     141.499    24.15
GXC-CellXC           219       0.622     136.163    23.24
gridxc@cellXC        219       0.622     136.162    23.24
vmat                 219       0.471     103.236    17.62
IterSCF              177       2.190     387.589    66.15
compute_dm           177       0.010       1.768     0.30
diagon               177       0.010       1.757     0.30
r-eigvec             177       0.008       1.403     0.24
r-buildHS            177       0.000       0.012     0.00
rdiag                177       0.008       1.390     0.24
rdiag1               177       0.000       0.050     0.01
rdiag2               177       0.001       0.154     0.03
rdiag3               177       0.005       0.830     0.14
rdiag4               177       0.002       0.347     0.06
r-buildD             177       0.002       0.337     0.06
MIXER                156       0.000       0.036     0.01
PostSCF               21       4.897     102.838    17.55
FINAL_HF              21       4.897     102.838    17.55
DHSCF4                21       2.689      56.471     9.64
dfscf                 21       2.384      50.062     8.54
overfsm               21       0.005       0.112     0.02
writeHSX              21       0.000       0.010     0.00
state_analysis        21       0.000       0.003     0.00
siesta_move           21       0.000       0.008     0.00
Analysis               1       0.001       0.001     0.00
optical                1       0.000       0.000     0.00
  

>> End of run:  24-MAR-2026  12:15:45
Job completed
Job completed
